"SMILES","CASRN","RECORDID","MOLECULEID","EXTERNALID","N","NAME","NAME","INTRODUCER","MODIFIER","ARTICLEID","PUBMEDID","PAGE","TABLE","pKa (smiles as ob. cond.) {measured}","UNIT {pKa (smiles as ob. cond.)}","pKa (smiles as ob. cond.) {measured, converted}","UNIT {pKa (smiles as ob. cond.)}","Ionizable centre (smiles)","IC group detected","AtomNR of IC","groupsAndICs","IC smiles given","IC group given","Temperature","UNIT {Temperature}","MultiGroupDetection","COMMENTS","INCHI_KEY"
"OC1C(Cl)CCCC1[N+]([O-])=O","603-86-1","R1150551","M740604","-","-","NSC28581 2-chloro-6-(hydroxy(oxido)amino)phenol","-","Koerner","Koerner","A5912","-","-","-","5.48","Log unit","5.48","Log unit","OC1C([N+](=O)[O-])CCCC1Cl","phenol","5","{phenol=[5]}","OC1=C(C=CC=C1Cl)[N+]([O-])=O","","","-","","-","CQJUFZRIVJWUHU-UHFFFAOYSA"
"CC1CC(C(O)C(C1)[N+]([O-])=O)[N+]([O-])=O","609-93-8","R1150552","M740607","-","-","NSC33870 2,6-bis(hydroxy(oxido)amino)-4-methylphenol","-","Koerner","Koerner","A5912","-","-","-","4.23","Log unit","4.23","Log unit","OC1C([N+](=O)[O-])CC(CC1[N+](=O)[O-])C","phenol","5","{phenol=[5]}","CC1=CC(=C(O)C(=C1)[N+]([O-])=O)[N+]([O-])=O","","","-","","-","UDJUIDMYAFKHMC-UHFFFAOYSA"
"OC1CCCCC1","108-95-2","R1150553","M3997","-","-","NSC36808 phenol","-","Koerner","Koerner","A5912","-","-","-","9.99","Log unit","9.99","Log unit","OC1CCCCC1","phenol","0","{phenol=[0]}","OC1=CC=CC=C1","","","-","","-","HPXRVTGHNJAIIH-UHFFFAOYSA"
"OC1C(CC(CC1[N+]([O-])=O)[N+]([O-])=O)[N+]([O-])=O","88-89-1","R1150554","M740567","-","-","NSC36947 2,4,6-tris(hydroxy(oxido)amino)phenol","-","Koerner","Koerner","A5912","-","-","-","0.38","Log unit","0.38","Log unit","OC1C([N+](=O)[O-])CC(CC1[N+](=O)[O-])[N+](=O)[O-]","phenol","5","{phenol=[5]}","OC1=C(C=C(C=C1[N+]([O-])=O)[N+]([O-])=O)[N+]([O-])=O","","","-","","-","XBCBRPKGZROKDQ-UHFFFAOYSA"
"CC1CC(C)C(O)CC1C","496-78-6","R1150555","M740596","-","-","NSC38776 2,4,5-trimethylphenol","-","Koerner","Koerner","A5912","-","-","-","10.6","Log unit","10.6","Log unit","OC1CC(C(C)CC1C)C","phenol","4","{phenol=[4]}","CC1=C(C)C=C(O)C(=C1)C","","","-","","-","QRWLRJQBUBNGIG-UHFFFAOYSA"
"CC1CCC(O)CC1[N+]([O-])=O","2042-14-0","R1150556","M740536","-","-","NSC41205 3-(hydroxy(oxido)amino)-4-methylphenol","-","Koerner","Koerner","A5912","-","-","-","8.62","Log unit","8.62","Log unit","OC1CCC(C)C([N+](=O)[O-])C1","phenol","10","{phenol=[10]}","CC1=C(C=C(O)C=C1)[N+]([O-])=O","","","-","","-","OUEOGXFGHLDQFJ-UHFFFAOYSA"
"CC1CCC(O)C(Cl)C1","6640-27-3","R1150557","M1018727","-","-","NSC48848 2-chloro-4-methylphenol","-","Koerner","Koerner","A5912","-","-","-","8.74","Log unit","8.74","Log unit","OC1C(Cl)CC(CC1)C","phenol","0","{phenol=[0]}","CC1=CC(=C(O)C=C1)Cl","","","-","","-","FURATIYZARQHHA-UHFFFAOYSA"
"OC1CCCCC1C#N","611-20-1","R1150558","M740608","-","-","NSC53558 2-hydroxybenzonitrile","-","Koerner","Koerner","A5912","-","-","-","6.86","Log unit","6.86","Log unit","OC1C(C#N)CCCC1","phenol","8","{phenol=[8]}","OC1=C(C=CC=C1)C#N","","","-","","-","MFPCXQNVYPKUSM-UHFFFAOYSA"
"OC1CCCC(Cl)C1","108-43-0","R1150559","M740506","-","-","NSC59700 3-chlorophenol","-","Koerner","Koerner","A5912","-","-","-","9.12","Log unit","9.12","Log unit","OC1CC(Cl)CCC1","phenol","0","{phenol=[0]}","OC1=CC(=CC=C1)Cl","","","-","","-","SDHOCLQZIDKFPH-UHFFFAOYSA"
"OC1CCC(C(C1)C(F)(F)F)[N+]([O-])=O","88-30-2","R1150560","M740497","-","-","NSC59758 4-(hydroxy(oxido)amino)-3-(trifluoromethyl)phenol","-","Koerner","Koerner","A5912","-","-","-","6.07","Log unit","6.07","Log unit","OC1CCC(C(C(F)(F)F)C1)[N+](=O)[O-]","phenol","13","{phenol=[13]}","OC1=CC(=C(C=C1)[N+]([O-])=O)C(F)(F)F","","","-","","-","NVBPYPWQMUJRIG-UHFFFAOYSA"
"OC1CCCC(C1)C#N","873-62-1","R1150561","M740533","-","-","NSC60108 3-hydroxybenzonitrile","-","Koerner","Koerner","A5912","-","-","-","8.61","Log unit","8.61","Log unit","OC1CC(C#N)CCC1","phenol","8","{phenol=[8]}","OC1=CC=CC(=C1)C#N","","","-","","-","FNARHEUUIFYEIC-UHFFFAOYSA"
"CCCCC1CCCCC1O","3180-09-4","R1150562","M1018786","-","-","NSC60291 2-butylphenol","-","Koerner","Koerner","A5912","-","-","-","10.6","Log unit","10.6","Log unit","OC1C(CCCC)CCCC1","phenol","10","{phenol=[10]}","CCCCC1=C(O)C=CC=C1","","","-","","-","LVDALGYBEFALAP-UHFFFAOYSA"
"OC1CCCC(Cl)C1Cl","576-24-9","R1150563","M740602","-","-","NSC60646 2,3-dichlorophenol","-","Koerner","Koerner","A5912","-","-","-","7.7","Log unit","7.7","Log unit","OC1CCCC(C1Cl)Cl","phenol","8","{phenol=[8]}","OC1=CC=CC(=C1Cl)Cl","","","-","","-","WSBVHLKPRMHQLU-UHFFFAOYSA"
"OC1C(Cl)CCCC1Cl","87-65-0","R1150564","M740565","-","-","NSC60647 2,6-dichlorophenol","-","Koerner","Koerner","A5912","-","-","-","6.79","Log unit","6.79","Log unit","OC1C(Cl)CCCC1Cl","phenol","0","{phenol=[0]}","OC1=C(Cl)C=CC=C1Cl","","","-","","-","FBKOESDSJIAOCA-UHFFFAOYSA"
"OC1CCC(Cl)C(Cl)C1","95-77-2","R1150565","M740500","-","-","NSC60648 3,4-dichlorophenol","-","Koerner","Koerner","A5912","-","-","-","8.63","Log unit","8.63","Log unit","OC1CCC(C(Cl)C1)Cl","phenol","8","{phenol=[8]}","OC1=CC(=C(Cl)C=C1)Cl","","","-","","-","YVZDMNSOZVLLKS-UHFFFAOYSA"
"OC1CC(Cl)CC(Cl)C1","591-35-5","R1150566","M740520","-","-","NSC60649 3,5-dichlorophenol","-","Koerner","Koerner","A5912","-","-","-","8.18","Log unit","8.18","Log unit","OC1CC(CC(Cl)C1)Cl","phenol","8","{phenol=[8]}","OC1=CC(=CC(=C1)Cl)Cl","","","-","","-","COQYHESDAOCXIP-UHFFFAOYSA"
"OCC1CCCC(O)C1","620-24-6","R1150567","M1018714","-","-","NSC60735 3-(hydroxymethyl)phenol","-","Koerner","Koerner","A5912","-","-","-","9.83","Log unit","9.83","Log unit","OC1CC(CO)CCC1","phenol","8","{phenol=[8]}","OCC1=CC(=CC=C1)O","","","-","","-","PFXRPUFYSLHDMF-UHFFFAOYSA"
"CC1CCCC(O)C1C","526-75-0","R1150568","M69612","-","-","NSC62011 2,3-dimethylphenol","-","Koerner","Koerner","A5912","-","-","-","10.5","Log unit","10.5","Log unit","OC1C(C)C(C)CCC1","phenol","8","{phenol=[8]}","CC1=C(C)C(=CC=C1)O","","","-","","-","KMVFQKNNDPKWOX-UHFFFAOYSA"
"CCC1CCC(O)CC1","123-07-9","R1150569","M74395","-","-","NSC62012 4-ethylphenol","-","Koerner","Koerner","A5912","-","-","-","10.0","Log unit","10.0","Log unit","OC1CCC(CC)CC1","phenol","6","{phenol=[6]}","CCC1=CC=C(O)C=C1","","","-","","-","RVTKUJWGFBADIN-UHFFFAOYSA"
"OC1CCCCC1C(=O)NC1CCCCC1Cl","1697-18-3","R1150570","M740541","-","-","NSC63709 N-(2-chlorophenyl)-2-hydroxybenzamide","-","Koerner","Koerner","A5912","-","-","-","7.31","Log unit","7.31","Log unit","OC1C(C(=O)NC2C(CCCC2)Cl)CCCC1","phenol","12","{phenol=[12]}","OC1=C(C=CC=C1)C(=O)NC2=C(Cl)C=CC=C2","","","-","","-","NMHSFXYOPBLMJL-UHFFFAOYSA"
"CCCC1CCCCC1O","644-35-9","R1150571","M740614","-","-","NSC65646 2-propylphenol","-","Koerner","Koerner","A5912","-","-","-","10.5","Log unit","10.5","Log unit","OC1C(CCC)CCCC1","phenol","5","{phenol=[5]}","CCCC1=C(O)C=CC=C1","","","-","","-","VZBNUCDUQJCIDP-UHFFFAOYSA"
"CCCC1CCC(O)CC1","645-56-7","R1150572","M740530","-","-","NSC65647 4-propylphenol","-","Koerner","Koerner","A5912","-","-","-","10.3","Log unit","10.3","Log unit","OC1CCC(CCC)CC1","phenol","7","{phenol=[7]}","CCCC1=CC=C(O)C=C1","","","-","","-","YVPZFPKENDZQEJ-UHFFFAOYSA"
"COC1CC(O)CC(C1)OC","500-99-2","R1150573","M139041","-","-","NSC70955 3,5-dimethoxyphenol","-","Koerner","Koerner","A5912","-","-","-","9.34","Log unit","9.34","Log unit","OC1CC(CC(OC)C1)OC","phenol","10","{phenol=[10]}","COC1=CC(=CC(=C1)O)OC","","","-","","-","LGSMLWJSCSQCNV-UHFFFAOYSA"
"OC1C(Cl)CC(Br)CC1Cl","3217-15-0","R1150574","M740630","-","-","NSC74624 4-bromo-2,6-dichlorophenol","-","Koerner","Koerner","A5912","-","-","-","6.21","Log unit","6.21","Log unit","OC1C(Cl)CC(CC1Cl)Br","phenol","0","{phenol=[0]}","OC1=C(Cl)C=C(Br)C=C1Cl","","","-","","-","ZANIFLJPFADINN-UHFFFAOYSA"
"CSC1CCC(O)CC1","1073-72-9","R1150575","M1018085","-","-","NSC75840 4-(methylthio)phenol","-","Koerner","Koerner","A5912","-","-","-","9.53","Log unit","9.53","Log unit","OC1CCC(SC)CC1","phenol","6","{phenol=[6]}","CSC1=CC=C(O)C=C1","","","-","","-","HTXZJLGNYGRBSL-UHFFFAOYSA"
"COC1CCC(CC1O)C=O","621-59-0","R1150576","M740613","-","-","NSC82996 3-hydroxy-4-methoxybenzaldehyde","-","Koerner","Koerner","A5912","-","-","-","8.89","Log unit","8.89","Log unit","OC1CC(C=O)CCC1OC","phenol","10","{phenol=[10]}","COC1=C(O)C=C(C=O)C=C1","","","-","","-","GXNDHUJLKDLZTE-UHFFFAOYSA"
"CC1CCC(O)C(CO)C1","4383-07-7","R1150577","M1017969","-","-","NSC85475 2-(hydroxymethyl)-4-methylphenol","-","Koerner","Koerner","A5912","-","-","-","10.2","Log unit","10.2","Log unit","OC1C(CO)CC(CC1)C","phenol","9","{phenol=[9]}","CC1=CC(=C(O)C=C1)CO","","","-","","-","QCMXSMBQKQTBGZ-UHFFFAOYSA"
"OC1CCCC(F)C1","372-20-3","R1150578","M740512","-","-","NSC87078 3-fluorophenol","-","Koerner","Koerner","A5912","-","-","-","9.21","Log unit","9.21","Log unit","OC1CC(F)CCC1","phenol","0","{phenol=[0]}","OC1=CC(=CC=C1)F","","","-","","-","XVHYGZFXBBUDTA-UHFFFAOYSA"
"OC1CCC(CC1)C(F)(F)F","402-45-9","R1150579","M740513","-","-","NSC88303 4-(trifluoromethyl)phenol","-","Koerner","Koerner","A5912","-","-","-","8.68","Log unit","8.68","Log unit","OC1CCC(C(F)(F)F)CC1","phenol","8","{phenol=[8]}","OC1=CC=C(C=C1)C(F)(F)F","","","-","","-","VJUJYNJEPPWWHS-UHFFFAOYSA"
"OC1CC(CCC1[N+]([O-])=O)[N+]([O-])=O","329-71-5","R1150580","M740593","-","-","NSC90441 2,5-bis(hydroxy(oxido)amino)phenol","-","Koerner","Koerner","A5912","-","-","-","5.21","Log unit","5.21","Log unit","OC1CC([N+](=O)[O-])CCC1[N+](=O)[O-]","phenol","12","{phenol=[12]}","OC1=C(C=CC(=C1)[N+]([O-])=O)[N+]([O-])=O","","","-","","-","PXTHKSPJPICBDP-UHFFFAOYSA"
"OC1CCC(CC1[N+]([O-])=O)C1CCCCC1","885-82-5","R1150581","M740619","-","-","NSC95810 3-(hydroxy(oxido)amino)[1,1'-biphenyl]-4-ol","-","Koerner","Koerner","A5912","-","-","-","6.73","Log unit","6.73","Log unit","OC1CCC(CC1[N+](=O)[O-])C1CCCCC1","phenol","9","{phenol=[9]}","OC1=CC=C(C=C1[N+]([O-])=O)C2=CC=CC=C2","","","-","","-","VBYTVJBMUMDFTG-UHFFFAOYSA"
"OC1CCCC(C1[N+]([O-])=O)[N+]([O-])=O","66-56-8","R1150582","M740564","-","-","NSC156083 2,3-bis(hydroxy(oxido)amino)phenol","-","Koerner","Koerner","A5912","-","-","-","4.96","Log unit","4.96","Log unit","OC1CCCC(C1[N+](=O)[O-])[N+](=O)[O-]","phenol","9","{phenol=[9]}","OC1=CC=CC(=C1[N+]([O-])=O)[N+]([O-])=O","","","-","","-","CJVHNSMGZHSWCO-UHFFFAOYSA"
"CCC(C)C1CC(CC(C1O)[N+]([O-])=O)[N+]([O-])=O","88-85-7","R1150583","M1154394","-","-","NSC202753 2-sec-butyl-4,6-bis(hydroxy(oxido)amino)phenol","-","Koerner","Koerner","A5912","-","-","-","4.62","Log unit","4.62","Log unit","OC1C(C(C)CC)CC(CC1[N+](=O)[O-])[N+](=O)[O-]","phenol","6","{phenol=[6]}","CCC(C)C1=C(O)C(=CC(=C1)[N+]([O-])=O)[N+]([O-])=O","","","-","","-","VSBYRCONSWHYND-UHFFFAOYSA"
"OCC1CCC(O)CC1","623-05-2","R1150584","M1017989","-","-","NSC227926 4-(hydroxymethyl)phenol","-","Koerner","Koerner","A5912","-","-","-","9.82","Log unit","9.82","Log unit","OC1CCC(CO)CC1","phenol","6","{phenol=[6]}","OCC1=CC=C(O)C=C1","","","-","","-","VGRZISGVNOKTQU-UHFFFAOYSA"
"OC1CC(Cl)C(Cl)C(Cl)C1","609-19-8","R1150585","M740523","-","-","NSC243667 3,4,5-trichlorophenol","-","Koerner","Koerner","A5912","-","-","-","7.84","Log unit","7.84","Log unit","OC1CC(C(Cl)C(C1)Cl)Cl","phenol","4","{phenol=[4]}","OC1=CC(=C(Cl)C(=C1)Cl)Cl","","","-","","-","DSCPOUPZGVGZKK-UHFFFAOYSA"
"NCCC1CCC(O)CC1","51-67-2","R1150586","M740495","-","-","NSC249188 4-(2-aminoethyl)phenol","-","Koerner","Koerner","A5912","-","-","-","9.77","Log unit","9.77","Log unit","OC1CCC(CCN)CC1","phenol","9","{phenol=[9]}","NCCC1=CC=C(O)C=C1","","","-","","-","FNHBFOVJIPXNFL-UHFFFAOYSA"
"OC1C(Cl)C(Cl)C(Cl)C(Cl)C1Cl","87-86-5","R1150587","M2143","-","-","NSC263497 2,3,4,5,6-pentachlorophenol","-","Koerner","Koerner","A5912","-","-","-","4.7","Log unit","4.7","Log unit","OC1C(C(C(Cl)C(C1Cl)Cl)Cl)Cl","phenol","7","{phenol=[7]}","OC1=C(Cl)C(=C(Cl)C(=C1Cl)Cl)Cl","","","-","","-","DOMHZVJNLCAZSA-UHFFFAOYSA"
"OC1CCC(CC1)C#N","767-00-0","R1150588","M740532","-","-","NSC400524 4-hydroxybenzonitrile","-","Koerner","Koerner","A5912","-","-","-","7.97","Log unit","7.97","Log unit","OC1CCC(CC1)C#N","phenol","6","{phenol=[6]}","OC1=CC=C(C=C1)C#N","","","-","","-","WXWQWXGBEHIOBL-UHFFFAOYSA"
"OC1CCC(Cl)CC1C(=O)NC1CCCCC1","4638-48-6","R1150589","M740547","-","-","NSC402600 5-chloro-2-hydroxy-N-phenylbenzamide","-","Koerner","Koerner","A5912","-","-","-","6.17","Log unit","6.17","Log unit","OC1C(C(=O)NC2CCCCC2)CC(Cl)CC1","phenol","9","{phenol=[9]}","OC1=C(C=C(Cl)C=C1)C(=O)NC2=CC=CC=C2","","","-","","-","GDRVMAFWQMZVTD-UHFFFAOYSA"
"CC1CC(Cl)C(O)C(Cl)C1","2432-12-4","R1150590","M740629","-","-","NSC407750 2,6-dichloro-4-methylphenol","-","Koerner","Koerner","A5912","-","-","-","7.19","Log unit","7.19","Log unit","OC1C(Cl)CC(C)CC1Cl","phenol","0","{phenol=[0]}","CC1=CC(=C(O)C(=C1)Cl)Cl","","","-","","-","SVIDVXSHXVQVJD-UHFFFAOYSA"
"OC1C(Cl)C(Cl)CC(Cl)C1Cl","935-95-5","R1150591","M740621","-","-","NSC407823 2,3,5,6-tetrachlorophenol","-","Koerner","Koerner","A5912","-","-","-","5.14","Log unit","5.14","Log unit","OC1C(Cl)C(Cl)CC(C1Cl)Cl","phenol","4","{phenol=[4]}","OC1=C(Cl)C(=CC(=C1Cl)Cl)Cl","","","-","","-","DRUHVZCPMGRDDY-UHFFFAOYSA"
"OC1CCC(Cl)CC1[N+]([O-])=O","89-64-5","R1150592","M740573","-","-","NSC520345 4-chloro-2-(hydroxy(oxido)amino)phenol","-","Koerner","Koerner","A5912","-","-","-","6.46","Log unit","6.46","Log unit","OC1C([N+](=O)[O-])CC(CC1)Cl","phenol","5","{phenol=[5]}","OC1=C(C=C(Cl)C=C1)[N+]([O-])=O","","","-","","-","UXRADQJDSXQKPK-UHFFFAOYSA"
"OC1CCCCC1C(=O)NC1CCC(Br)CC1","2627-77-2","R1150593","M740543","-","-","NSC526279 N-(4-bromophenyl)-2-hydroxybenzamide","-","Koerner","Koerner","A5912","-","-","-","7.31","Log unit","7.31","Log unit","OC1C(C(=O)NC2CCC(CC2)Br)CCCC1","phenol","12","{phenol=[12]}","OC1=C(C=CC=C1)C(=O)NC2=CC=C(Br)C=C2","","","-","","-","CKXCZJHSBTWBPA-UHFFFAOYSA"
"CCC(C)(C)C1CCC(O)CC1","80-46-6","R1150594","M75285","-","-","NSC403672 4-tert-pentylphenol","-","Koerner","Koerner","A5912","-","-","-","10.4","Log unit","10.4","Log unit","OC1CCC(C(CC)(C)C)CC1","phenol","9","{phenol=[9]}","CCC(C)(C)C1=CC=C(O)C=C1","","","-","","-","VDQZABQVXYELSI-UHFFFAOYSA"
"CC(C)C1CC(Cl)C(C)CC1O","89-68-9","R1150595","M740572","-","-","NSC406261 4-chloro-2-isopropyl-5-methylphenol","-","Koerner","Koerner","A5912","-","-","-","9.98","Log unit","9.98","Log unit","OC1C(C(C)C)CC(Cl)C(C1)C","phenol","6","{phenol=[6]}","CC(C)C1=C(O)C=C(C)C(=C1)Cl","","","-","","-","DPHRWZBMVKKIKM-UHFFFAOYSA"
"COC1CC(CCC1O)C=O","121-33-5","R1150596","M740589","-","-","NSC403658 4-hydroxy-3-methoxybenzaldehyde","-","Koerner","Koerner","A5912","-","-","-","7.4","Log unit","7.4","Log unit","OC1C(OC)CC(C=O)CC1","phenol","6","{phenol=[6]}","COC1=CC(=CC=C1O)C=O","","","-","","-","DCDFGPPEPDQMPO-UHFFFAOYSA"
"NCCC1=CC=C(O)C=C1","51-67-2","R1166026","M2404","-","-","4-(2-Aminoethyl)phenol","-","Koerner","Koerner","A5912","-","-","-","9.77","Log unit","9.77","Log unit","Oc1ccc(CCN)cc1","","9","{phenol=[9]}","","phenol","","-","","-","DZGWFCGJZKJUFP-UHFFFAOYSA"
"CC1=C(Cl)C=CC(O)=C1","59-50-7","R1166027","M1312","-","-","3-methyl-4-chlorophenol","-","Koerner","Koerner","A5912","-","-","-","9.2","Log unit","9.2","Log unit","Oc1cc(c(Cl)cc1)C","","7","{phenol=[7]}","","phenol","25.0","?C","","-","CFKMVGJGLGKFKI-UHFFFAOYSA"
"CCC(C)(C)C1=CC=C(O)C=C1","80-46-6","R1166028","M7553","-","-","4-tert-Amylphenol","-","Koerner","Koerner","A5912","-","-","-","10.43","Log unit","10.43","Log unit","Oc1ccc(cc1)C(CC)(C)C","","0","{phenol=[0]}","","phenol","","-","","-","NRZWYNLTFLDQQX-UHFFFAOYSA"
"OC1=CC(=C(C=C1)[N+]([O-])=O)C(F)(F)F","88-30-2","R1166029","M14055","-","-","3-Trifluoromethyl-4-nitrophenol","-","Koerner","Koerner","A5912","-","-","-","6.07","Log unit","6.07","Log unit","Oc1cc(c([N+](=O)[O-])cc1)C(F)(F)F","","9","{phenol=[9]}","","phenol","","-","","-","ZEFMBAFMCSYJOO-UHFFFAOYSA"
"CC1=CC(O)=CC(C)=C1Cl","88-04-0","R1166030","M8220","-","-","4-CHLORO-3,5-DIMETHYL PHENOL","-","Koerner","Koerner","A5912","-","-","-","9.702","Log unit","9.702","Log unit","Oc1cc(c(Cl)c(c1)C)C","","8","{phenol=[8]}","","phenol","25.0","?C","","-","OSDLLIBGSJNGJE-UHFFFAOYSA"
"OC1=CC=C(C=C1)C1=CC=CC=C1","92-69-3","R1166031","M13909","-","-","4-Phenylphenol","-","Koerner","Koerner","A5912","-","-","-","9.55","Log unit","9.55","Log unit","Oc1ccc(cc1)c1ccccc1","","0","{phenol=[0]}","","phenol","","-","","-","YXVFYQXJAXKLAK-UHFFFAOYSA"
"CCCCOC(=O)C1=CC=C(O)C=C1","94-26-8","R1166032","M9089","-","-","4-HYDROXY BUTYL BENZOATE","-","Koerner","Koerner","A5912","-","-","-","8.47","Log unit","8.47","Log unit","Oc1ccc(C(=O)OCCCC)cc1","","13","{phenol=[13]}","","phenol","","-","","-","QFOHBWFCKVYLES-UHFFFAOYSA"
"OC1=CC(Cl)=C(Cl)C=C1","95-77-2","R1166033","M12171","-","-","3,4-Dichlorophenol","-","Koerner","Koerner","A5912","-","-","-","8.63","Log unit","8.63","Log unit","Oc1ccc(c(Cl)c1)Cl","","7","{phenol=[7]}","","phenol","","-","","-","WDNBURPWRNALGP-UHFFFAOYSA"
"CC1=C(C)C=C(O)C=C1","95-65-8","R1166034","M13431","-","-","3,4-Dimethylphenol","-","Koerner","Koerner","A5912","-","-","-","10.36","Log unit","10.36","Log unit","Oc1cc(c(cc1)C)C","","0","{phenol=[0]}","","phenol","25.0","?C","","-","YCOXTKKNXUZSKD-UHFFFAOYSA"
"CC(C)(C)C1=CC=C(O)C=C1","98-54-4","R1166035","M9142","-","-","4-T-BUTYLYPHENOL","-","Koerner","Koerner","A5912","-","-","-","10.39","Log unit","10.39","Log unit","Oc1ccc(cc1)C(C)(C)C","","0","{phenol=[0]}","","phenol","25.0","?C","","-","QHPQWRBYOIRBIT-UHFFFAOYSA"
"OC1=CC=CC(=C1)C(F)(F)F","98-17-9","R1166036","M11044","-","-","3-Trifluoromethylphenol","-","Koerner","Koerner","A5912","-","-","-","8.95","Log unit","8.95","Log unit","Oc1cc(C(F)(F)F)ccc1","","10","{phenol=[10]}","","phenol","25.0","?C","","-","UGEJOEBBMPOJMT-UHFFFAOYSA"
"CC(=O)C1=CC=C(O)C=C1","99-93-4","R1166037","M10849","-","-","4-hydroxyacetophenone","-","Koerner","Koerner","A5912","-","-","-","8.05","Log unit","8.05","Log unit","Oc1ccc(cc1)C(=O)C","","0","{phenol=[0]}","","phenol","25.0","?C","","-","TXFPEBPIARQUIG-UHFFFAOYSA"
"CC(C)C1=CC=C(O)C=C1","99-89-8","R1166038","M13731","-","-","4-isopropylphenol","-","Koerner","Koerner","A5912","-","-","-","10.24","Log unit","10.24","Log unit","Oc1ccc(cc1)C(C)C","","0","{phenol=[0]}","","phenol","25.0","?C","","-","YQUQWHNMBPIWGK-UHFFFAOYSA"
"OC1=CC(C=O)=CC=C1","100-83-4","R1166039","M4261","-","-","3-hydroxybenzaldehyde","-","Koerner","Koerner","A5912","-","-","-","8.98","Log unit","8.98","Log unit","Oc1cc(ccc1)C=O","","0","{phenol=[0]}","","phenol","25.0","?C","","-","IAVREABSGIHHMO-UHFFFAOYSA"
"OC1=CC=C(C=C1)[N+]([O-])=O","100-02-7","R1166040","M1034","-","-","4-nitrophenol","-","Koerner","Koerner","A5912","-","-","-","7.15","Log unit","7.15","Log unit","Oc1ccc([N+](=O)[O-])cc1","","9","{phenol=[9]}","","phenol","25.0","?C","","-","BTJIUGUIPKRLHP-UHFFFAOYSA"
"CC(=O)NC1=CC=C(O)C=C1","103-90-2","R1166041","M10192","-","-","N-(4-HYDROXYPHENYL)ACETAMIDE","-","Koerner","Koerner","A5912","-","-","-","9.38","Log unit","9.38","Log unit","Oc1ccc(NC(=O)C)cc1","","7","{phenol=[7]}","","phenol","","-","","-","RZVAJINKPMORJF-UHFFFAOYSA"
"OC1=CC=C(Cl)C=C1","106-48-9","R1166042","M12688","-","-","4-Chlorophenol","-","Koerner","Koerner","A5912","-","-","-","9.41","Log unit","9.41","Log unit","Oc1ccc(Cl)cc1","","7","{phenol=[7]}","","phenol","26.0","?C","","-","WXNZTHHGJRFXKQ-UHFFFAOYSA"
"CC1=CC=C(O)C=C1","106-44-5","R1166043","M4734","-","-","4-cresol","-","Koerner","Koerner","A5912","-","-","-","10.26","Log unit","10.26","Log unit","Oc1ccc(cc1)C","","0","{phenol=[0]}","","phenol","25.0","?C","","-","IWDCLRJOBJJRNH-UHFFFAOYSA"
"OC1=CC=C(Br)C=C1","106-41-2","R1166044","M3624","-","-","4-bromophenol","-","Koerner","Koerner","A5912","-","-","-","9.17","Log unit","9.17","Log unit","Oc1ccc(Br)cc1","","7","{phenol=[7]}","","phenol","25.0","?C","","-","GZFGOTFRPZRKDS-UHFFFAOYSA"
"OC1=CC=CC=C1","108-95-2","R1166045","M4660","-","-","Phenol","-","Koerner","Koerner","A5912","-","-","-","9.994","Log unit","9.994","Log unit","Oc1ccccc1","","0","{phenol=[0]}","","phenol","25.0","?C","","-","ISWSIDIOOBJBQZ-UHFFFAOYSA"