"SMILES","CASRN","RECORDID","MOLECULEID","EXTERNALID","N","NAME","NAME","INTRODUCER","MODIFIER","ARTICLEID","PUBMEDID","PAGE","TABLE","pKa (smiles as ob. cond.) {measured}","UNIT {pKa (smiles as ob. cond.)}","pKa (smiles as ob. cond.) {measured, converted}","UNIT {pKa (smiles as ob. cond.)}","Ionizable centre (smiles)","IC group detected","AtomNR of IC","groupsAndICs","IC smiles given","IC group given","Temperature","UNIT {Temperature}","MultiGroupDetection","COMMENTS","INCHI_KEY"
"CC(C)NC(=N)NC(=N)NC1=CC=C(I)C=C1","-","R945912","M1106700","-","-","N1-(4-Iodophenyl)-N5-isopropyl-diguanide","-","Koerner","charochkina","A5793","-","-","-","11.0","Log unit","11.0","Log unit","C(=N)(Nc1ccc(I)cc1)NC(=N)NC(C)C","8","","{neth=[8, 11], nr2=[0, 10, 13]}","N(c2ccc(I)cc2)C(=N)NC(=N)NC(C)C","neth","25.0","?C","true","-","IUYZOOQUHPCDIS-UHFFFAOYSA"
"CC(C)N=C(N)NC(N)=N","-","R945913","M1106701","-","-","isoprpyl-diguanide","-","Koerner","charochkina","A5793","-","-","-","11.35","Log unit","11.35","Log unit","C(=N)(N)NC(=NC(C)C)N","1","","{neth=[1, 4], nr2=[0, 3, 9]}","NC(=N)NC(=NC(C)C)N","neth","25.0","?C","true","-","UBBHRFLEDZWRNR-UHFFFAOYSA"
"CC(C)N=C(N)NC(N)=[NH2+]","-","R945914","M1106701","-","-","isoprpyl-diguanide","-","Koerner","charochkina","A5793","-","-","-","3.1","Log unit","3.1","Log unit","C(=NC(C)C)(NC(=[NH2+])N)N","4","","{neth=[4], nr2=[0, 3, 9]}","NC(=[N+1])NC(=NC(C)C)N","neth","25.0","?C","","-","UBBHRFLEDZWRNR-UHFFFAOYSA"
"CC(C)NC(=N)NC(=N)NC1=CC=CC=C1","-","R945915","M1106702","-","-","N1-isopropyl-(4-Iodophenyl)-N5-diguanide","-","Koerner","charochkina","A5793","-","-","-","11.5","Log unit","11.5","Log unit","C(=N)(Nc1ccccc1)NC(=N)NC(C)C","7","","{neth=[7, 10], nr2=[0, 9, 12]}","N(c2ccccc2)C(=N)NC(=N)NC(C)C","neth","25.0","?C","true","-","MBJBAEJPGXZCJH-UHFFFAOYSA"
"CC(C)NC(=[NH2+])NC(=N)NC1=CC=CC=C1","-","R945916","M1106702","-","-","N1-isopropyl-(4-Iodophenyl)-N5-diguanide","-","Koerner","charochkina","A5793","-","-","-","1.9","Log unit","1.9","Log unit","C(=N)(Nc1ccccc1)NC(=[NH2+])NC(C)C","7","","{neth=[7], nr2=[0, 9, 12]}","N(c2ccccc2)C(=N)NC(=[N+1])NC(C)C","neth","25.0","?C","","-","MBJBAEJPGXZCJH-UHFFFAOYSA"
"CN=C(N)NC(N)=N","-","R945917","M1106703","-","-","N'-methyl-diguanide","-","Koerner","charochkina","A5793","-","-","-","11.42","Log unit","11.42","Log unit","C(=N)(N)NC(=NC)N","1","","{neth=[1, 4], nr2=[0, 3, 7]}","NC(=N)NC(=NC)N","neth","25.0","?C","true","-","JLPWQEHTPOFCPG-UHFFFAOYSA"
"CN=C(N)NC(N)=[NH2+]","-","R945918","M1106703","-","-","N'-methyl-diguanide","-","Koerner","charochkina","A5793","-","-","-","3.0","Log unit","3.0","Log unit","C(=NC)(NC(=[NH2+])N)N","4","","{neth=[4], nr2=[0, 3, 7]}","NC(=[N+1])NC(=NC)N","neth","25.0","?C","","-","JLPWQEHTPOFCPG-UHFFFAOYSA"
"NC(=N)NC(N)=NC1=CC=CC2=C1C=CC=C2","-","R945919","M32844","-","-","napthyl-diguanide","-","Koerner","charochkina","A5793","-","-","-","10.24","Log unit","10.24","Log unit","C(=N)(N)NC(=Nc1cccc2ccccc12)N","1","","{neth=[1, 4], nr2=[0, 3, 16]}","NC(=N)NC(=Nc1cccc2ccccc12)N","neth","25.0","?C","true","-","UUBZPMKBMHXGNE-UHFFFAOYSA"
"NC(=N)NC(N)=[NH+]C1=CC=CC2=C1C=CC=C2","-","R945920","M32844","-","-","napthyl-diguanide","-","Koerner","charochkina","A5793","-","-","-","2.04","Log unit","2.04","Log unit","C(=N)(N)NC(=[NH+]c1cccc2ccccc12)N","1","","{neth=[1, 4], nr2=[0, 3, 16]}","NC(=N)NC(=[N+1]c1cccc2ccccc12)N","neth","25.0","?C","true","-","UUBZPMKBMHXGNE-UHFFFAOYSA"
"NC(=N)NC(N)=NC1=CC2=C(C=CC=C2)C=C1","-","R945921","M30277","-","-","2-napthyl-diguanide","-","Koerner","charochkina","A5793","-","-","-","10.7","Log unit","10.7","Log unit","c1(cc2ccccc2cc1)N=C(N)NC(=N)N","1","","{neth=[1, 6], nr2=[4, 5, 8]}","c1c(N=C(N)NC(=N)N)ccc2ccccc12","neth","25.0","?C","true","-","RDLIBCPWPNCFBW-UHFFFAOYSA"
"NC(=N)NC(N)=NC1=CC2=C(C=CC=C2)C=C1","-","R945922","M30277","-","-","2-napthyl-diguanide","-","Koerner","charochkina","A5793","-","-","-","10.7","Log unit","10.7","Log unit","C(=N)(NC(=Nc1cc2ccccc2cc1)N)N","6","","{neth=[1, 6], nr2=[4, 5, 8]}","c1c(N=C(N)NC(=N)N)ccc2ccccc12","neth","25.0","?C","true","-","RDLIBCPWPNCFBW-UHFFFAOYSA"
"NC(=[NH2+])NC(=N)NC1=CC=CC=C1","-","R945923","M1655","-","-","DIGUANIDE","-","Koerner","charochkina","A5793","-","-","-","2.1","Log unit","2.1","Log unit","C(=N)(NC(=[NH2+])N)Nc1ccccc1","4","","{neth=[4], nr2=[0, 3, 6]}","NC(=[N+1])NC(=N)Nc1ccccc1","neth","25.0","?C","","-","CUQCMXFWIMOWRP-UHFFFAOYSA"
"CCCN=C(N)NC(N)=N","-","R945924","M1106704","-","-","propyl-diguanide","-","Koerner","charochkina","A5793","-","-","-","11.35","Log unit","11.35","Log unit","C(=N)(N)NC(=NCCC)N","1","","{neth=[1, 4], nr2=[0, 3, 9]}","NC(=N)NC(=NCCC)N","neth","25.0","?C","true","-","FAPXKQMFIRYKMF-UHFFFAOYSA"
"CCCN=C(N)NC(N)=[NH2+]","-","R945925","M1106704","-","-","isoprpyl-diguanide","-","Koerner","charochkina","A5793","-","-","-","3.1","Log unit","3.1","Log unit","C(=NCCC)(NC(=[NH2+])N)N","4","","{neth=[4], nr2=[0, 3, 9]}","NC(=[N+1])NC(=NCCC)N","neth","25.0","?C","","-","FAPXKQMFIRYKMF-UHFFFAOYSA"
"NC(CCC(N)=[NH+]O)=NO","-","R945926","M655335","-","-","1,4-diamino-1,4-bishydroxyiminobutane","-","Koerner","charochkina","A5793","-","-","-","3.3","Log unit","3.3","Log unit","C(=NO)(CCC(=[NH+]O)N)N","6","","{neth=[0, 6], nr2=[3, 9], oh=[0, 8]}","O[N+1]=C(N)CCC(=NO)N","neth","25.0","?C","true","-","LHYIWYMOHCIQRH-UHFFFAOYSA"
"NC(N)=N","-","R945927","M18856","-","-","GUANIDINE","-","Koerner","charochkina","A5793","-","-","-","13.9","Log unit","13.9","Log unit","C(=N)(N)N","1","","{neth=[1], nr2=[0, 3]}","NC(=N)N","neth","25.0","?C","","-","ZRALSGWEFCBTJO-UHFFFAOYSA"
"CCC1CCCNC1O","-","R945728","M1018237","-","-","3-ethyl-2-hydroxypiperidine","-","Koerner","charochkina","A5793","-","-","-","9.09","Log unit","9.09","Log unit","N1C(O)C(CCC1)CC","2","","{nr2=[2], oh=[0]}","OC(NCC1)C(C1)CC","nr2","25.0","?C","","-","AFJKSILBJRJDGX-UHFFFAOYSA"
"CCN1CCCCC1C","-","R945729","M134263","-","-","1-ETHYL-2-METHYLPIPERIDINE","-","Koerner","charochkina","A5793","-","-","-","10.66","Log unit","10.66","Log unit","N1(CCCCC1C)CC","4","","{nr2=[4]}","C(CCC1)N(C1C)CC","nr2","25.0","?C","","-","LPCWDBCEHWHJGX-UHFFFAOYSA"
"CC1CCCC(C)N1CC(C)(C)O","-","R945730","M1107223","-","-","1-(2-hydroxy-2-methyl)propyl-cis-2,6-dimethylpiperidine","-","Koerner","charochkina","A5793","-","-","-","10.5","Log unit","10.5","Log unit","N1(C(CCCC1C)C)CC(O)(C)C","7","","{nr2=[7], oh=[10]}","C(CCC1C)C(C)N1CC(O)(C)C","nr2","25.0","?C","","-","LZHFZYWXIKMMBM-UHFFFAOYSA"
"OC(CN1CCCCC1)CN1CCCCC1","-","R945731","M1107224","-","-","1-(2-hydroxy-3-piperidino)propylpiperidine","-","Koerner","charochkina","A5793","-","-","-","9.18","Log unit","9.18","Log unit","N1(CCCCC1)CC(O)CN1CCCCC1","4","","{nr2=[4, 10], oh=[8]}","C(CCC1)N(C1)CC(O)CN(CCC2)CC2","nr2","25.0","?C","true","-","ANDURLBISWGIFG-UHFFFAOYSA"
"CC(C)CN1CCCCC1","-","R945732","M1107225","-","-","1-isobutylpiperidine","-","Koerner","charochkina","A5793","-","-","-","10.44","Log unit","10.44","Log unit","N1(CCCCC1)CC(C)C","4","","{nr2=[4]}","C(CCC1)N(C1)CC(C)C","nr2","25.0","?C","","-","BNBLWPUWMNURAX-UHFFFAOYSA"
"CC(C)C1CCCNC1","-","R945733","M1018240","-","-","3-isopropylpiperidine","-","Koerner","charochkina","A5793","-","-","-","10.75","Log unit","10.75","Log unit","N1CCCC(C1)C(C)C","0","","{nr2=[0]}","N(CCC1)CC1C(C)C","nr2","25.0","?C","","-","FKEYLVBZOQMOOV-UHFFFAOYSA"
"CC(C)C1CCNCC1","-","R945734","M1018273","-","-","4-isopropylpiperidine","-","Koerner","charochkina","A5793","-","-","-","10.85","Log unit","10.85","Log unit","N1CCC(C(C)C)CC1","0","","{nr2=[0]}","N(CCC1C(C)C)CC1","nr2","25.0","?C","","-","YBPWIUSXQXYTSR-UHFFFAOYSA"
"CN1CCCCC1","-","R945735","M8397","-","-","1-Methylpiperidine","-","Koerner","charochkina","A5793","-","-","-","10.135","Log unit","10.135","Log unit","N1(CCCCC1)C","4","","{nr2=[4]}","C(CCC1)N(C1)C","nr2","25.0","?C","","-","PAMIQIKDUOTOBW-UHFFFAOYSA"
"CC1CCCCN1","-","R945736","M18679","-","-","2-METHYLPIPERIDINE","-","Koerner","charochkina","A5793","-","-","-","11.015","Log unit","11.015","Log unit","N1CCCCC1C","0","","{nr2=[0]}","N(CCC1)C(C1)C","nr2","25.0","?C","","-","NNWUEBIEOFQMSS-UHFFFAOYSA"
"CC1CCCNC1","-","R945737","M67291","-","-","3-Methylpiperidine","-","Koerner","charochkina","A5793","-","-","-","11.07","Log unit","11.07","Log unit","N1CCCC(C1)C","0","","{nr2=[0]}","N(CCC1)CC1C","nr2","25.0","?C","","-","JEGMWWXJUXDNJN-UHFFFAOYSA"
"CN1CCC(CC1)(C1=CC=CC=C1)C1=CC=CC=C1","-","R945738","M37489","-","-","1-methyl-4,4-diphenylpiperidine","-","Koerner","charochkina","A5793","-","-","-","8.65","Log unit","8.65","Log unit","N1(CCC(c2ccccc2)(CC1)c1ccccc1)C","7","","{nr2=[7]}","c(ccc1C(CCN2C)(CC2)-c(ccc3)cc3)cc1","nr2","25.0","?C","","-","KNCYRTOZAIAEPJ-UHFFFAOYSA"
"CC1CCNCC1","-","R945739","M22831","-","-","4-Methylpiperidine","-","Koerner","charochkina","A5793","-","-","-","10.78","Log unit","10.78","Log unit","N1CCC(C)CC1","0","","{nr2=[0]}","N(CCC1C)CC1","nr2","25.0","?C","","-","UZOFELREXGAFOI-UHFFFAOYSA"
"CC(C=C(C1=CC=CS1)C1=CC=CS1)N1CCCCC1","-","R945740","M1107226","-","-","1-(1-methyl-3,3-dithienyl)prop-2-enylpiperidine","-","Koerner","charochkina","A5793","-","-","-","8.41","Log unit","8.41","Log unit","N1(C(C=C(c2sccc2)c2sccc2)C)CCCCC1","13","","{nr2=[13]}","S(C=C1)C(=C1)C(C(SC=2)=CC2)=CC(N(CCC3)CC3)C","nr2","25.0","?C","","-","FQRWJLVMJCKSME-UHFFFAOYSA"
"CC(C=C(C1=CC=CS1)C1=CC=CS1)N1CCCC(C)C1","-","R945741","M1107227","-","-","3-methyl-1-(1-methyl-3,3-dithienyl)prop-2-enylpiperidine","-","Koerner","charochkina","A5793","-","-","-","8.23","Log unit","8.23","Log unit","N1(C(C=C(c2sccc2)c2sccc2)C)CC(CCC1)C","13","","{nr2=[13]}","S(C=C1)C(=C1)C(C(SC=2)=CC2)=CC(N(CC(C3)C)CC3)C","nr2","25.0","?C","","-","DRHHXMDPOKHINI-UHFFFAOYSA"
"CCC1CCN(CC1)C(C)C=C(C1=CC=CS1)C1=CC=CS1","-","R945742","M1107228","-","-","4-methyl-1-(1-methyl-3,3-dithienyl)prop-2-enylpiperidine","-","Koerner","charochkina","A5793","-","-","-","8.15","Log unit","8.15","Log unit","N1(C(C=C(c2sccc2)c2sccc2)C)CCC(CC)CC1","13","","{nr2=[13]}","S(C=C1)C(=C1)C(C(SC=2)=CC2)=CC(N(CCC3CC)CC3)C","nr2","25.0","?C","","-","JPLZOOGAPMGUKM-UHFFFAOYSA"
"CCC(C)N1CCC(CC1)(C1=CC=CC=C1)C1=CC=CC=C1","-","R945743","M1107229","-","-","1-(1-methylpropyl)-4-4-diphenylpiperidine","-","Koerner","charochkina","A5793","-","-","-","9.67","Log unit","9.67","Log unit","N1(CCC(c2ccccc2)(CC1)c1ccccc1)C(CC)C","7","","{nr2=[7]}","c(ccc1C(CCN2C(CC)C)(CC2)c(ccc3)cc3)cc1","nr2","25.0","?C","","-","HMQGLWXGGPUQAV-UHFFFAOYSA"
"CN1C(C)(C)CCCC1(C)C","-","R945744","M17570","-","-","1,2,2,6,6-Pentamethylpiperidine","-","Koerner","charochkina","A5793","-","-","-","11.19","Log unit","11.19","Log unit","N1(C)C(CCCC1(C)C)(C)C","0","","{nr2=[0]}","N(C)(C(CC1)(C)C)C(C1)(C)C","nr2","25.0","?C","","-","XULIXFLCVXWHRF-UHFFFAOYSA"
"CN1CC(C)(C)CC(C)(C)C1","-","R945745","M1107230","-","-","1,3,3,5,5-pentamethylpiperidine","-","Koerner","charochkina","A5793","-","-","-","9.43","Log unit","9.43","Log unit","N1(CC(CC(C1)(C)C)(C)C)C","0","","{nr2=[0]}","N(CC(C1)(C)C)(CC1(C)C)C","nr2","25.0","?C","","-","PMMZUVGCIXZLBC-UHFFFAOYSA"
"C(CN1CCCCC1)N1CCCCC1","-","R945746","M25974","-","-","1-(2-piperidino)ethylpiperidine","-","Koerner","charochkina","A5793","-","-","-","9.17","Log unit","9.17","Log unit","N1(CCCCC1)CCN1CCCCC1","5","","{nr2=[5, 8]}","C1CCCCN1CCN2CCCCC2","nr2","25.0","?C","true","-","UYMQPNRUQXPLCY-UHFFFAOYSA"
"C(C[NH+]1CCCCC1)N1CCCCC1","-","R945747","M25974","-","-","1-(2-piperidino)ethylpiperidine","-","Koerner","charochkina","A5793","-","-","-","6.55","Log unit","6.55","Log unit","[NH+]1(CCCCC1)CCN1CCCCC1","5","","{nr2=[5, 8]}","C1CCCC[N+1]1CCN2CCCCC2","nr2","25.0","?C","true","-","UYMQPNRUQXPLCY-UHFFFAOYSA"
"NC1CCCCC1CCCN1CCCCC1","-","R945748","M1107231","-","-","1-(3-piperidino)propylpiperidine","-","Koerner","charochkina","A5793","-","-","-","9.95","Log unit","9.95","Log unit","N1(CCCCC1)CCCC1CCCCC1N","4","","{nr2=[4, 14]}","C(CCC1)N(C1)CCCC(CCC2)C(N)C2","nr2","25.0","?C","true","-","XWQVPYMRWAVAPJ-UHFFFAOYSA"
"C1CCC(NC1)C1CCCCN1","-","R945749","M740932","-","-","2-(2-piperidyl)piperidine","-","Koerner","charochkina","A5793","-","-","-","9.9","Log unit","9.9","Log unit","N1CCCCC1C1NCCCC1","0","","{nr2=[0, 7]}","N(CCC1)C(C1)C(NCC2)CC2","nr2","25.0","?C","true","-","CLBJZAWCBRAMRZ-UHFFFAOYSA"
"CCCN1CCCCC1","-","R945750","M30391","-","-","1-n-propylpiperidine","-","Koerner","charochkina","A5793","-","-","-","10.41","Log unit","10.41","Log unit","N1(CCCCC1)CCC","4","","{nr2=[4]}","C(CCC1)N(C1)CCC","nr2","25.0","?C","","-","VTDIWMPYBAVEDY-UHFFFAOYSA"
"CCCC1CCCCN1","-","R945751","M7222","-","-","2-n-propyl-piperidine","-","Koerner","charochkina","A5793","-","-","-","10.9","Log unit","10.9","Log unit","N1CCCCC1CCC","0","","{nr2=[0]}","N(CCC1)C(C1)CCC","nr2","25.0","?C","","-","NDNUANOUGZGEPO-UHFFFAOYSA"
"C1CCC([NH2+]C1)C1=CN=CC=C1","-","R945752","M7019","-","-","2-(3-Pyridyl)piperidine","-","Koerner","charochkina","A5793","-","-","-","3.2","Log unit","3.2","Log unit","n1cccc(c1)C1[NH2+]CCCC1","0","","{n=[0]}","n(ccc1)cc1C([N+1]CC2)CC2","n","25.0","?C","","-","MTXSIJUGVMTTMU-UHFFFAOYSA"
"CC1CCN(C)C(C)(C)C1","-","R945753","M1107232","-","-","1,2,2,4-tetramethylpiperidine","-","Koerner","charochkina","A5793","-","-","-","10.18","Log unit","10.18","Log unit","N1(CCC(CC1(C)C)C)C","1","","{nr2=[1]}","C(N(C)C(C1)(C)C)CC1C","nr2","25.0","?C","","-","BKZJRKNFIWYMBC-UHFFFAOYSA"
"CC1CCCC(C)(C)N1C","-","R945754","M1107233","-","-","1,2,2,6-tetramethylpiperidine","-","Koerner","charochkina","A5793","-","-","-","10.7","Log unit","10.7","Log unit","N1(C)C(CCCC1(C)C)C","0","","{nr2=[0]}","N(C)(C(CC1)C)C(C1)(C)C","nr2","25.0","?C","","-","HVJKLCOHVAENRQ-UHFFFAOYSA"
"CC1(C)CCCC(C)(C)N1","-","R945755","M23589","-","-","2,2,6,6-Tetramethylpiperidine","-","Koerner","charochkina","A5793","-","-","-","11.07","Log unit","11.07","Log unit","N1C(CCCC1(C)C)(C)C","0","","{nr2=[0]}","N(C(CC1)(C)C)C(C1)(C)C","nr2","25.0","?C","","-","RKMGAJGJIURJSJ-UHFFFAOYSA"
"CC1CCCC(C)N1C","-","R945756","M29643","-","-","cis-1,2,6-Trimethylpiperidine","-","Koerner","charochkina","A5793","-","-","-","10.15","Log unit","10.15","Log unit","N1(C(CCCC1C)C)C","3","","{nr2=[3]}","C(CC(N1C)C)CC1C","nr2","25.0","?C","","-","COSHJOZVKGAYBP-UHFFFAOYSA"
"CC1(C)CNCC(C)(C)C1","-","R945757","M1107234","-","-","3,3,5,5-tetramethylpiperidine","-","Koerner","charochkina","A5793","-","-","-","10.1","Log unit","10.1","Log unit","N1CC(CC(C1)(C)C)(C)C","0","","{nr2=[0]}","N(CC(C1)(C)C)CC1(C)C","nr2","25.0","?C","","-","TYNBPDGCJJZXPH-UHFFFAOYSA"
"CC1CCN(C)C(C)C1","-","R945758","M1107235","-","-","1,2,4-trimethylpiperidine","-","Koerner","charochkina","A5793","-","-","-","10.23","Log unit","10.23","Log unit","N1(CCC(CC1C)C)C","5","","{nr2=[5]}","C(CC(C1)C)N(C)C1C","nr2","25.0","?C","","-","OHOXUWZWLCKZQT-UHFFFAOYSA"
"CN1CCCC(C)(C)C1","-","R945759","M1107236","-","-","1,3,3-trimethylpiperidine","-","Koerner","charochkina","A5793","-","-","-","9.77","Log unit","9.77","Log unit","N1(CCCC(C)(C)C1)C","6","","{nr2=[6]}","C(CCC1(C)C)N(C1)C","nr2","25.0","?C","","-","PGERUXBLYIRESD-UHFFFAOYSA"
"CC1CC(C)CN(C)C1","-","R945760","M1107237","-","-","1,3,5-trimethylpiperidine","-","Koerner","charochkina","A5793","-","-","-","9.995","Log unit","9.995","Log unit","N1(CC(CC(C1)C)C)C","1","","{nr2=[1]}","C(N(CC1C)C)C(C1)C","nr2","25.0","?C","","-","IGJDIGJIINCEDE-UHFFFAOYSA"
"CC1CCNC(C)(C)C1","-","R945761","M1107238","-","-","2,2,4-trimethylpiperidine","-","Koerner","charochkina","A5793","-","-","-","11.04","Log unit","11.04","Log unit","N1CCC(C)CC1(C)C","0","","{nr2=[0]}","N(CCC1C)C(C1)(C)C","nr2","25.0","?C","","-","AIRGIADVPCTKHU-UHFFFAOYSA"
"CC1CCCC(C)(C)N1","-","R945762","M1107239","-","-","2,2,6-Trimethylpiperidine","-","Koerner","charochkina","A5793","-","-","-","11.21","Log unit","11.21","Log unit","N1C(CCCC1(C)C)C","0","","{nr2=[0]}","N(C(CC1)C)C(C1)(C)C","nr2","25.0","?C","","-","QARRCHMPOZWNED-UHFFFAOYSA"
"C1CCNC1","-","R945763","M10105","-","-","pyrrolidine","-","Koerner","charochkina","A5793","-","-","-","11.02","Log unit","11.02","Log unit","N1CCCC1","0","","{nr2=[0]}","N(CC1)CC1","nr2","25.0","?C","","-","RWRDLPDLKQPQOW-UHFFFAOYSA"
"NCCN1CCCC1","-","R945764","M31719","-","-","Pyrrolidine,1-(2-amminoethyl)-","-","Koerner","charochkina","A5793","-","-","-","9.7","Log unit","9.7","Log unit","N1(CCCC1)CCN","3","","{nr2=[3, 7]}","C(CC1)N(C1)CCN","nr2","25.0","?C","true","-","WRXNJTBODVGDRY-UHFFFAOYSA"
"C(N1CCCCC1)C1=CC=CC=C1","-","R945765","M27561","-","-","Pyrrolidine, 1-benzyl-","-","Koerner","charochkina","A5793","-","-","-","9.5","Log unit","9.5","Log unit","N1(Cc2ccccc2)CCCCC1","5","","{nr2=[5]}","c(ccc1CN(CCC2)CC2)cc1","nr2","25.0","?C","","-","NZVZVGPYTICZBZ-UHFFFAOYSA"
"C(C1CCCN1)C1=CC=CC=C1","-","R945766","M134258","-","-","Pyrrolidine,2-benzyl-","-","Koerner","charochkina","A5793","-","-","-","10.31","Log unit","10.31","Log unit","N1C(Cc2ccccc2)CCC1","6","","{nr2=[6]}","c(ccc1CC(NC2)CC2)cc1","nr2","25.0","?C","","-","NKHMSOXIXROFRU-UHFFFAOYSA"
"CCCCN1CCCC1","-","R945767","M23571","-","-","Pyrrolidine,1-n-butyl-","-","Koerner","charochkina","A5793","-","-","-","10.4","Log unit","10.4","Log unit","N1(CCCC1)CCCC","3","","{nr2=[3]}","C(CC1)N(C1)CCCC","nr2","25.0","?C","","-","JSHASCFKOSDFHY-UHFFFAOYSA"
"CCCCN1CCCC1C","-","R945768","M1107240","-","-","Pyrrolidine, 1-n-butyl-2-methyl-","-","Koerner","charochkina","A5793","-","-","-","10.61","Log unit","10.61","Log unit","N1(CCCC1C)CCCC","3","","{nr2=[3]}","C(CC1)N(C1C)CCCC","nr2","25.0","?C","","-","MISVVRDOUNLNJJ-UHFFFAOYSA"
"CCCCC1CCCN1C","-","R945769","M1107241","-","-","Pyrrolidine,2-n-butyl-1-methyl-","-","Koerner","charochkina","A5793","-","-","-","10.2","Log unit","10.2","Log unit","N1(CCCC1CCCC)C","1","","{nr2=[1]}","C(N(C)C1CCCC)CC1","nr2","25.0","?C","","-","PWVDAYXZBXAOSA-UHFFFAOYSA"
"ClC1=CC=C(CC(=CCN2CCCC2)C2=CC=CC=C2)C=C1","-","R945770","M17990","-","-","Pyrrolidine,1-(4-p-chlorophenyl-3-phenyl)but-2-enyl-:","-","Koerner","charochkina","A5793","-","-","-","8.77","Log unit","8.77","Log unit","N1(CC=C(Cc2ccc(Cl)cc2)c2ccccc2)CCCC1","15","","{nr2=[15]}","Cl-c(ccc1CC(-c(ccc2)cc2)=CCN(CC3)CC3)cc1","nr2","25.0","?C","","-","WDYYVNNRTDZKAZ-UHFFFAOYSA"
"N#CCN1CCCC1","-","R945771","M37143","-","-","Pyrrolidine, 1-cyanomethyl-","-","Koerner","charochkina","A5793","-","-","-","4.8","Log unit","4.8","Log unit","N1(CCCC1)CC#N","3","","{nr2=[3]}","C(CC1)N(C1)CC#N","nr2","25.0","?C","","-","NPRYXVXVLCYBNS-UHFFFAOYSA"
"C1CCN(C1)C1CCCCC1","-","R945772","M1107242","-","-","Pyrrolidine, 11-cyclohexyl-","-","Koerner","charochkina","A5793","-","-","-","10.7","Log unit","10.7","Log unit","N1(CCCC1)C1CCCCC1","3","","{nr2=[3]}","C(CC1)N(C1)C(CCC2)CC2","nr2","25.0","?C","","-","ULBBXWVIXXPSOD-UHFFFAOYSA"
"C1CNC(C1)C1CCCCC1","-","R945773","M134255","-","-","Pyrrolidine,2-cyclohexyl-","-","Koerner","charochkina","A5793","-","-","-","10.76","Log unit","10.76","Log unit","N1CCCC1C1CCCCC1","0","","{nr2=[0]}","N(CC1)C(C1)C(CCC2)CC2","nr2","25.0","?C","","-","KRDXTHSSNCTAGY-UHFFFAOYSA"
"CC1CCCN1C","-","R945774","M67684","-","-","Pyrrolidine,1,2-dimethyl-","-","Koerner","charochkina","A5793","-","-","-","10.2","Log unit","10.2","Log unit","N1(CCCC1C)C","3","","{nr2=[3]}","C(CC1)N(C)C1C","nr2","25.0","?C","","-","PXHHIBMOFPCBJQ-UHFFFAOYSA"
"CCN1CCCC1N(C)C","-","R945775","M1107243","-","-","Pyrrolidine,1-(2-dimethylamino)ethyl-","-","Koerner","charochkina","A5793","-","-","-","9.439","Log unit","9.439","Log unit","N1(CCCC1N(C)C)CC","3","","{nr2=[3, 7]}","C(CC1)N(CC)C1N(C)C","nr2","25.0","?C","true","-","CMWSEJAZGYWBIN-UHFFFAOYSA"
"CCC1CCCN1","-","R945776","M134229","-","-","Pyrrolidine,2-ethyl-","-","Koerner","charochkina","A5793","-","-","-","10.6","Log unit","10.6","Log unit","N1CCCC1CC","0","","{nr2=[0]}","N(CC1)C(C1)CC","nr2","25.0","?C","","-","JFZLDRUSMYBXRI-UHFFFAOYSA"
"CCN1CCCC1C","-","R945777","M1107244","-","-","Pyrrolidine, 1-ethyl-2-methyl","-","Koerner","charochkina","A5793","-","-","-","10.56","Log unit","10.56","Log unit","N1(CCCC1C)CC","3","","{nr2=[3]}","C(CC1)N(C1C)CC","nr2","25.0","?C","","-","JKNXMPSMAZUQMJ-UHFFFAOYSA"