"SMILES","CASRN","RECORDID","MOLECULEID","EXTERNALID","N","NAME","NAME","INTRODUCER","MODIFIER","ARTICLEID","PUBMEDID","PAGE","TABLE","pKa (smiles as ob. cond.) {measured}","UNIT {pKa (smiles as ob. cond.)}","pKa (smiles as ob. cond.) {measured, converted}","UNIT {pKa (smiles as ob. cond.)}","Ionizable centre (smiles)","IC group detected","AtomNR of IC","groupsAndICs","IC smiles given","IC group given","Temperature","UNIT {Temperature}","MultiGroupDetection","COMMENTS","INCHI_KEY"
"NCCCCCCCC[NH3+]","-","R945102","M20287","-","-","1,8-diaminoocatane","-","Koerner","charochkina","A5793","-","-","-","10.4","Log unit","10.4","Log unit","NCCCCCCCC[NH3+]","9","","{nr2=[9]}","[N+1]CCCCCCCCN","nr2","25.0","?C","","-","PWGJDPKCLMLPJW-UHFFFAOYSA"
"CC(=NO)C(C)(C)C(N)C(N)C(C)(C)C(C)=NO","-","R945103","M1107033","-","-","4,5-diamino-2,7-bishydroxyimino-3,3,6,6-tetramethyloctane","-","Koerner","charochkina","A5793","-","-","-","8.04","Log unit","8.04","Log unit","NC(C(C(=NO)C)(C)C)C(N)C(C(=NO)C)(C)C","8","","{neth=[0, 12], nr2=[8, 10], oh=[0, 14]}","ON=C(C)C(C)(C)C(N)C(N)C(C(=NO)C)(C)C","nr2","25.0","?C","true","-","OLMPWLZYXNAVBS-UHFFFAOYSA"
"CCCCCCCCNCCCCCCCC","-","R945104","M24622","-","-","1-octylaminooctane","-","Koerner","charochkina","A5793","-","-","-","11.01","Log unit","11.01","Log unit","N(CCCCCCCC)CCCCCCCC","0","","{nr2=[0]}","N(CCCCCCCC)CCCCCCCC","nr2","25.0","?C","","-","LAWOZCWGWDVVSG-UHFFFAOYSA"
"CCCCCCCCCN","-","R945105","M2636","-","-","1-Aminononane","-","Koerner","charochkina","A5793","-","-","-","10.64","Log unit","10.64","Log unit","NCCCCCCCCC","0","","{nr2=[0]}","NCCCCCCCCC","nr2","25.0","?C","","-","FJDUDHYHRVPMJZ-UHFFFAOYSA"
"CCCCCCCCCCN","-","R945106","M6778","-","-","1-amino-decane","-","Koerner","charochkina","A5793","-","-","-","10.64","Log unit","10.64","Log unit","NCCCCCCCCCC","0","","{nr2=[0]}","NCCCCCCCCCC","nr2","25.0","?C","","-","MHZGKXUYDGKKIU-UHFFFAOYSA"
"CCCCCCCCCCN(CC(C)O)CC(C)O","-","R945107","M94565","-","-","1-(bis-2-hydroxypropyl)aminodecane","-","Koerner","charochkina","A5793","-","-","-","7.6","Log unit","7.6","Log unit","N(CC(O)C)(CC(O)C)CCCCCCCCCC","4","","{nr2=[4], oh=[0, 7]}","OC(C)CN(CC(O)C)CCCCCCCCCC","nr2","25.0","?C","","-","BVNRDHVWLFPWFU-UHFFFAOYSA"
"CCCCCCCCCCCN","-","R945108","M9087","-","-","1-Aminoundecane","-","Koerner","charochkina","A5793","-","-","-","10.63","Log unit","10.63","Log unit","NCCCCCCCCCCC","0","","{nr2=[0]}","NCCCCCCCCCCC","nr2","25.0","?C","","-","QFKMMXYLAPZKIB-UHFFFAOYSA"
"CCCCCCCCCCCCN","-","R945109","M5216","-","-","1-amino-dodecane","-","Koerner","charochkina","A5793","-","-","-","10.63","Log unit","10.63","Log unit","NCCCCCCCCCCCC","0","","{nr2=[0]}","NCCCCCCCCCCCC","nr2","25.0","?C","","-","JRBPAEWTRLWTQC-UHFFFAOYSA"
"CCCCCCCCCCCCN(CC(C)O)CC(C)O","-","R945110","M69701","-","-","1-(bis-2-hydroxypropyl)aminododecane","-","Koerner","charochkina","A5793","-","-","-","6.2","Log unit","6.2","Log unit","N(CC(O)C)(CC(O)C)CCCCCCCCCCCC","4","","{nr2=[4], oh=[0, 7]}","OC(C)CN(CC(O)C)CCCCCCCCCCCC","nr2","25.0","?C","","-","BZJZJFAPSOEUFE-UHFFFAOYSA"
"CCCCCCCCCCCCNCCCCCCCCCCCC","-","R945111","M72201","-","-","1-dodecylaminododecane","-","Koerner","charochkina","A5793","-","-","-","11.0","Log unit","11.0","Log unit","N(CCCCCCCCCCCC)CCCCCCCCCCCC","0","","{nr2=[0]}","N(CCCCCCCCCCCC)CCCCCCCCCCCC","nr2","25.0","?C","","-","MJCJUDJQDGGKOX-UHFFFAOYSA"
"CCCCCCCCCCCCCN","-","R945112","M34","-","-","1-Aminotridecane","-","Koerner","charochkina","A5793","-","-","-","10.63","Log unit","10.63","Log unit","NCCCCCCCCCCCCC","0","","{nr2=[0]}","NCCCCCCCCCCCCC","nr2","25.0","?C","","-","ABVVEAHYODGCLZ-UHFFFAOYSA"
"CCCCCCCCCCCCCNCCCCCCCCCCCCC","-","R945113","M30745","-","-","1-tridecylaminotridecane","-","Koerner","charochkina","A5793","-","-","-","11.0","Log unit","11.0","Log unit","N(CCCCCCCCCCCCC)CCCCCCCCCCCCC","0","","{nr2=[0]}","N(CCCCCCCCCCCCC)CCCCCCCCCCCCC","nr2","25.0","?C","","-","PZFYOFFTIYJCEW-UHFFFAOYSA"
"CCCCCCCCCCCCCCN","-","R945114","M25842","-","-","1-Aminotetradecane","-","Koerner","charochkina","A5793","-","-","-","10.62","Log unit","10.62","Log unit","NCCCCCCCCCCCCCC","0","","{nr2=[0]}","NCCCCCCCCCCCCCC","nr2","25.0","?C","","-","PLZVEHJLHYMBBY-UHFFFAOYSA"
"CCCCCCCCCCCCCCN(CC(C)O)CC(C)O","-","R945115","M91177","-","-","1-(bis-2-hydroxypropyl)aminotetradecane","-","Koerner","charochkina","A5793","-","-","-","5.6","Log unit","5.6","Log unit","N(CC(O)C)(CC(O)C)CCCCCCCCCCCCCC","4","","{nr2=[4], oh=[0, 7]}","OC(C)CN(CC(O)C)CCCCCCCCCCCCCC","nr2","25.0","?C","","-","NMEWVFFBYQFTLK-UHFFFAOYSA"
"CCCCCCCCCCCCCCCN","-","R945116","M27109","-","-","1-amino-pentadecane","-","Koerner","charochkina","A5793","-","-","-","10.61","Log unit","10.61","Log unit","NCCCCCCCCCCCCCCC","0","","{nr2=[0]}","NCCCCCCCCCCCCCCC","nr2","25.0","?C","","-","JPZYXGPCHFZBHO-UHFFFAOYSA"
"CCCCCCCCCCCCCCCNCCCCCCCCCCCCCCC","-","R945117","M97092","-","-","1-pentadecylaminopentadecane","-","Koerner","charochkina","A5793","-","-","-","11.0","Log unit","11.0","Log unit","N(CCCCCCCCCCCCCCC)CCCCCCCCCCCCCCC","0","","{nr2=[0]}","N(CCCCCCCCCCCCCCC)CCCCCCCCCCCCCCC","nr2","25.0","?C","","-","YDFFPEXFCAUTSL-UHFFFAOYSA"
"CCCCCCCCCCCCCCCCN","-","R945118","M19618","-","-","1-Aminohexadecane","-","Koerner","charochkina","A5793","-","-","-","10.61","Log unit","10.61","Log unit","NCCCCCCCCCCCCCCCC","0","","{nr2=[0]}","NCCCCCCCCCCCCCCCC","nr2","25.0","?C","","-","FJLUATLTXUNBOT-UHFFFAOYSA"
"CCCCCCCCCCCCCCCCN(CC(C)O)CC(C)O","-","R945119","M70978","-","-","1-(bis-2-hydroxypropyl)aminohexadecane","-","Koerner","charochkina","A5793","-","-","-","4.8","Log unit","4.8","Log unit","N(CC(O)C)(CC(O)C)CCCCCCCCCCCCCCCC","4","","{nr2=[4], oh=[0, 7]}","OC(C)CN(CC(O)C)CCCCCCCCCCCCCCCC","nr2","25.0","?C","","-","MNDXNPPBHMRCOA-UHFFFAOYSA"
"CCCCCCCCCCCCCCCCCN","-","R945120","M29081","-","-","1-Aminoheptadecane","-","Koerner","charochkina","A5793","-","-","-","10.6","Log unit","10.6","Log unit","NCCCCCCCCCCCCCCCCC","0","","{nr2=[0]}","NCCCCCCCCCCCCCCCCC","nr2","25.0","?C","","-","KAJZYANLDWUIES-UHFFFAOYSA"
"CCCCCCCCCCCCCCCCCCN(CC(C)O)CC(C)O","-","R945121","M83244","-","-","1-(bis-2-hydroxypropyl)aminooctadecane","-","Koerner","charochkina","A5793","-","-","-","4.6","Log unit","4.6","Log unit","N(CC(O)C)(CC(O)C)CCCCCCCCCCCCCCCCCC","4","","{nr2=[4], oh=[0, 7]}","OC(C)CN(CC(O)C)CCCCCCCCCCCCCCCCCC","nr2","25.0","?C","","-","WPNICNOCPSBYTR-UHFFFAOYSA"
"CCCCCCCCCCCCCCCCCCNCCCCCCCCCCCCCCCCCC","-","R945122","M65434","-","-","1-octadecylaminooctadecane","-","Koerner","charochkina","A5793","-","-","-","11.0","Log unit","11.0","Log unit","N(CCCCCCCCCCCCCCCCCC)CCCCCCCCCCCCCCCCCC","0","","{nr2=[0]}","N(CCCCCCCCCCCCCCCCCC)CCCCCCCCCCCCCCCCCC","nr2","25.0","?C","","-","HKUFIYBZNQSHQS-UHFFFAOYSA"
"CCCCCCCCCCCCCCCCCCN","-","R945123","M19195","-","-","1-amino-octadecane","-","Koerner","charochkina","A5793","-","-","-","10.6","Log unit","10.6","Log unit","NCCCCCCCCCCCCCCCCCC","0","","{nr2=[0]}","NCCCCCCCCCCCCCCCCCC","nr2","25.0","?C","","-","REYJJPSVUYRZGE-UHFFFAOYSA"
"CCCCCCCCCCCCCCCCCCCCCCN","-","R945124","M115022","-","-","1-amino-docosane","-","Koerner","charochkina","A5793","-","-","-","10.6","Log unit","10.6","Log unit","NCCCCCCCCCCCCCCCCCCCCCC","0","","{nr2=[0]}","NCCCCCCCCCCCCCCCCCCCCCC","nr2","25.0","?C","","-","VPNOHCYAOXWMAR-UHFFFAOYSA"
"CN(C)CCO","-","R944925","M18640","-","-","1-dimethylamino-2-hydroxyethane","-","Koerner","charochkina","A5793","-","-","-","9.245","Log unit","9.245","Log unit","N(CCO)(C)C","3","","{nr2=[3], oh=[0]}","OCCN(C)C","nr2","25.0","?C","","-","UEEJHVSXFDXPFK-UHFFFAOYSA"
"CNCCOC(C1=CC=CC=C1)C1=CC=CC=C1","-","R944926","M40294","-","-","1-diphenylmethoxy-2-methylaminoethane","-","Koerner","charochkina","A5793","-","-","-","9.0","Log unit","9.0","Log unit","N(CCOC(c1ccccc1)c1ccccc1)C","8","","{nr2=[8]}","c(ccc1C(OCCNC)c(ccc2)cc2)cc1","nr2","25.0","?C","","-","AGSLYHYWLYGAOU-UHFFFAOYSA"
"CCNCC","-","R944927","M3990","-","-","ethylaminoethane","-","Koerner","charochkina","A5793","-","-","-","11.1","Log unit","11.1","Log unit","N(CC)CC","0","","{nr2=[0]}","N(CC)CC","nr2","25.0","?C","","-","HPNMFZURTQLUMO-UHFFFAOYSA"
"CCN(C)CC","-","R944928","M3374","-","-","N-ethyl-N-methylaminoethane","-","Koerner","charochkina","A5793","-","-","-","10.46","Log unit","10.46","Log unit","N(C)(CC)CC","0","","{nr2=[0]}","N(C)(CC)CC","nr2","25.0","?C","","-","GNVRJGIVDSQCOP-UHFFFAOYSA"
"OCCN(CCO)CCO","-","R944929","M3468","-","-","1-hydroxy-2-(2,2'-bishydroxyethyl)aminoethane","-","Koerner","charochkina","A5793","-","-","-","7.66655","Log unit","7.66655","Log unit","N(CCO)(CCO)CCO","3","","{nr2=[3], oh=[0, 6, 9]}","OCCN(CCO)CCO","nr2","25.0","?C","","-","GSEJCLTVZPLZKY-UHFFFAOYSA"
"OCCNCCO","-","R944930","M13983","-","-","1-hydroxy-2-(2-hydroxyethyl)aminoethane","-","Koerner","charochkina","A5793","-","-","-","8.776","Log unit","8.776","Log unit","N(CCO)CCO","3","","{nr2=[3], oh=[0, 6]}","OCCNCCO","nr2","25.0","?C","","-","ZBCBWPMODOFKDW-UHFFFAOYSA"
"CN(CCO)CCO","-","R944931","M1590","-","-","1-hydroxy-2-(2-hydroxyethylmethyl)aminoethane","-","Koerner","charochkina","A5793","-","-","-","8.545","Log unit","8.545","Log unit","N(CCO)(CCO)C","3","","{nr2=[3], oh=[0, 6]}","OCCN(CCO)C","nr2","25.0","?C","","-","CRVGTESFCCXCTH-UHFFFAOYSA"
"NCCOP([O-])([O-])=O","-","R944932","M24436","-","-","2-Aminoethyl dihydrogen phosphate","-","Koerner","charochkina","A5793","-","-","-","10.33","Log unit","10.33","Log unit","NCCOP(=O)([O-])[O-]","7","","{nr2=[7]}","P(=O)([O-1])([O-1])OCCN","nr2","25.0","?C","","-","SUHOOTKUPISOBE-UHFFFAOYSA"
"[NH3+]CCOP(O)([O-])=O","-","R944933","M24436","-","-","2-Aminoethyl dihydrogen phosphate","-","Koerner","charochkina","A5793","-","-","-","5.8","Log unit","5.8","Log unit","OP(=O)([O-])OCC[NH3+]","2","","{po2h=[2]}","P(=O)(O)([O-1])OCC[N+1]","po2h","25.0","?C","","-","SUHOOTKUPISOBE-UHFFFAOYSA"
"NCCOS([O-])(=O)=O","-","R944934","M24016","-","-","2-Aminoethyl hydrogen sulphate","-","Koerner","charochkina","A5793","-","-","-","9.4","Log unit","9.4","Log unit","NCCOS(=O)(=O)[O-]","7","","{nr2=[7]}","S(=O)(=O)([O-1])OCCN","nr2","25.0","?C","","-","WSYUEVRAMDSJKL-UHFFFAOYSA"
"NCCSCCO","-","R944935","M81525","-","-","2-amino-2'-hydroxy-diethyl sulfide","-","Koerner","charochkina","A5793","-","-","-","9.41","Log unit","9.41","Log unit","NCCSCCO","6","","{nr2=[6], oh=[3]}","S(CCO)CCN","nr2","25.0","?C","","-","ZRZOERYTFAWUQQ-UHFFFAOYSA"
"NCCSSCCN","-","R944936","M64799","-","-","bis(2-aminoethyl)disulphide","-","Koerner","charochkina","A5793","-","-","-","8.86","Log unit","8.86","Log unit","NCCSSCCN","4","","{nr2=[4, 7]}","S(SCCN)CCN","nr2","25.0","?C","true","-","APQPRKLAWCIJEK-UHFFFAOYSA"
"CN(C)CCSCCN(C)C","-","R944937","M1106985","-","-","bisdimethylaminoethyl sulphide","-","Koerner","charochkina","A5793","-","-","-","8.9","Log unit","8.9","Log unit","N(CCSCCN(C)C)(C)C","3","","{nr2=[3, 8]}","S(CCN(C)C)CCN(C)C","nr2","25.0","?C","true","-","CSOZUBZPEIKOKM-UHFFFAOYSA"
"CN(C)CCSCC[NH+](C)C","-","R944938","M1106985","-","-","bisdimethylaminoethyl sulphide","-","Koerner","charochkina","A5793","-","-","-","8.3","Log unit","8.3","Log unit","[NH+](CCSCCN(C)C)(C)C","3","","{nr2=[3, 8]}","S(CC[N+1](C)C)CCN(C)C","nr2","25.0","?C","true","-","CSOZUBZPEIKOKM-UHFFFAOYSA"
"NCCSSCCN","-","R944939","M64799","-","-","2,2'-diaminodiethyl disulphide","-","Koerner","charochkina","A5793","-","-","-","9.28","Log unit","9.28","Log unit","NCCSSCCN","7","","{nr2=[4, 7]}","S(SCCN)CCN","nr2","25.0","?C","true","-","APQPRKLAWCIJEK-UHFFFAOYSA"
"NCCSSCC[NH3+]","-","R944940","M64799","-","-","2,2'-diaminodiethyl disulphide","-","Koerner","charochkina","A5793","-","-","-","9.1","Log unit","9.1","Log unit","NCCSSCC[NH3+]","7","","{nr2=[7]}","S(SCC[N+1])CCN","nr2","25.0","?C","","-","APQPRKLAWCIJEK-UHFFFAOYSA"
"NCCSCCN","-","R944941","M67986","-","-","2,2'-diaminodiethyl sulphide","-","Koerner","charochkina","A5793","-","-","-","9.34","Log unit","9.34","Log unit","NCCSCCN","3","","{nr2=[3, 6]}","S(CCN)CCN","nr2","25.0","?C","true","-","JONTXEXBTWSUKE-UHFFFAOYSA"
"NCCSCC[NH3+]","-","R944942","M67986","-","-","2,2'-diaminodiethyl sulphide","-","Koerner","charochkina","A5793","-","-","-","9.14","Log unit","9.14","Log unit","NCCSCC[NH3+]","6","","{nr2=[6]}","S(CC[N+1])CCN","nr2","25.0","?C","","-","JONTXEXBTWSUKE-UHFFFAOYSA"
"CN(C)CCCC(C)=O","-","R944943","M1106986","-","-","1-acetyl-3-dimethylaminopropane","-","Koerner","charochkina","A5793","-","-","-","9.07","Log unit","9.07","Log unit","N(CCCC(=O)C)(C)C","6","","{nr2=[6]}","O=C(C)CCCN(C)C","nr2","25.0","?C","","-","HCRLXYVAWDRFBV-UHFFFAOYSA"
"CC(CN(C)C)C(C(C)=O)(C1=CC=CC=C1)C1=CC=CC=C1","-","R944944","M1106987","-","-","1-acetyl-3-dimethylamino-2-methyl-1,1-diphenylpropane","-","Koerner","charochkina","A5793","-","-","-","9.53","Log unit","9.53","Log unit","N(CC(C(c1ccccc1)(c1ccccc1)C(=O)C)C)(C)C","16","","{nr2=[16]}","c(ccc1C(c(ccc2)cc2)(C(=O)C)C(CN(C)C)C)cc1","nr2","25.0","?C","","-","AGTXFZFJRVHLCH-UHFFFAOYSA"
"CCCN","-","R944945","M12277","-","-","1-amino-propane","-","Koerner","charochkina","A5793","-","-","-","10.699","Log unit","10.699","Log unit","NCCC","0","","{nr2=[0]}","NCCC","nr2","25.0","?C","","-","WGYKZJWCGVVSQN-UHFFFAOYSA"
"CC(C)N","-","R944946","M5061","-","-","2-AMINO-PROPANE","-","Koerner","charochkina","A5793","-","-","-","10.7","Log unit","10.7","Log unit","NC(C)C","0","","{nr2=[0]}","NC(C)C","nr2","25.0","?C","","-","JJWLVOIRVHMVIS-UHFFFAOYSA"
"[NH3+]CCCNCCC[NH3+]","-","R944947","M17139","-","-","1-amino-3-(3-aminopropyl)aminopropane","-","Koerner","charochkina","A5793","-","-","-","7.9","Log unit","7.9","Log unit","N(CCC[NH3+])CCC[NH3+]","4","","{nr2=[4]}","[N+1]CCCNCCC[N+1]","nr2","25.0","?C","","-","OTBHHUPVCYLGQO-UHFFFAOYSA"
"CN(CCCN)CCCN","-","R944948","M18551","-","-","1-amino-3-(3-aminoproplylmethyl)aminopropane","-","Koerner","charochkina","A5793","-","-","-","9.8","Log unit","9.8","Log unit","NCCCN(C)CCCN","0","","{nr2=[0, 4, 9]}","NCCCN(C)CCCN","nr2","25.0","?C","true","-","KMBPCQSCMCEPMU-UHFFFAOYSA"
"CN(CCC[NH3+])CCC[NH3+]","-","R944949","M18551","-","-","1-amino-3-(3-aminoproplylmethyl)aminopropane","-","Koerner","charochkina","A5793","-","-","-","6.5","Log unit","6.5","Log unit","N(CCC[NH3+])(C)CCC[NH3+]","4","","{nr2=[4]}","[N+1]CCCN(C)CCC[N+1]","nr2","25.0","?C","","-","KMBPCQSCMCEPMU-UHFFFAOYSA"
"NCCCBr","-","R944950","M1106988","-","-","1-amino-3-bromo-propane","-","Koerner","charochkina","A5793","-","-","-","8.93","Log unit","8.93","Log unit","NCCCBr","4","","{nr2=[4]}","BrCCCN","nr2","25.0","?C","","-","ZTGQZSKPSJUEBU-UHFFFAOYSA"
"CC(CN)C#N","-","R944951","M65183","-","-","1-amino-2-cyanopropane","-","Koerner","charochkina","A5793","-","-","-","7.75","Log unit","7.75","Log unit","NCC(C#N)C","5","","{nr2=[5]}","N#CC(C)CN","nr2","25.0","?C","","-","GDIMNXJSMJSDSB-UHFFFAOYSA"
"CC(N)CC#N","-","R944952","M1106989","-","-","2-amino-1-cyanopropane","-","Koerner","charochkina","A5793","-","-","-","7.85","Log unit","7.85","Log unit","NC(CC#N)C","4","","{nr2=[4]}","N#CCC(N)C","nr2","25.0","?C","","-","PPBSMPOYVPZOFM-UHFFFAOYSA"
"CC(C)(N)C#N","-","R944953","M34706","-","-","2-amino-2-cyano-propane","-","Koerner","charochkina","A5793","-","-","-","5.3","Log unit","5.3","Log unit","NC(C#N)(C)C","3","","{nr2=[3]}","N#CC(N)(C)C","nr2","25.0","?C","","-","JQULXIOYDDCNGR-UHFFFAOYSA"
"NC(CO)(CO)CO","-","R944954","M6104","-","-","2-amino-2-hydroxymethylpropane","-","Koerner","charochkina","A5793","-","-","-","7.93885","Log unit","7.93885","Log unit","NC(CO)(CO)CO","3","","{nr2=[3], oh=[0, 5, 7]}","OCC(N)(CO)CO","nr2","25.0","?C","","-","LENZDBCJOHFCAS-UHFFFAOYSA"
"CC(O)CN","-","R944955","M4176","-","-","1-Amino-2-hydroxypropane","-","Koerner","charochkina","A5793","-","-","-","9.619","Log unit","9.619","Log unit","NCC(O)C","4","","{nr2=[4], oh=[0]}","OC(C)CN","nr2","25.0","?C","","-","HXKKHQJGJAFBHI-UHFFFAOYSA"
"CC(N)(CO)CO","-","R944956","M11448","-","-","2-amino-1,3-dihydroxy-2-methyl-propane","-","Koerner","charochkina","A5793","-","-","-","9.1","Log unit","9.1","Log unit","NC(CO)(C)CO","3","","{nr2=[3], oh=[0, 6]}","OCC(N)(C)CO","nr2","25.0","?C","","-","UXFQFBNBSPQBJW-UHFFFAOYSA"
"CC(C)(C)CN","-","R944957","M12831","-","-","1-amino-2,2-dimethyl-propane","-","Koerner","charochkina","A5793","-","-","-","10.155","Log unit","10.155","Log unit","NCC(C)(C)C","0","","{nr2=[0]}","NCC(C)(C)C","nr2","25.0","?C","","-","XDIAMRVROCPPBK-UHFFFAOYSA"
"NCCCO","-","R944958","M12615","-","-","1-amino-3-hydroxy-propane","-","Koerner","charochkina","A5793","-","-","-","9.905001","Log unit","9.905001","Log unit","NCCCO","4","","{nr2=[4], oh=[0]}","OCCCN","nr2","25.0","?C","","-","WUGQZFFCHPXWKQ-UHFFFAOYSA"
"CC(N)CO","-","R944959","M831","-","-","2-amino-1-hydroxy-propane","-","Koerner","charochkina","A5793","-","-","-","9.43","Log unit","9.43","Log unit","NC(CO)C","3","","{nr2=[3], oh=[0]}","OCC(N)C","nr2","25.0","?C","","-","BKMMTJMQCTUHRP-UHFFFAOYSA"
"CC(C)(O)CN","-","R944960","M1106990","-","-","1-amino-2-hydroxy-2-methyl-propane","-","Koerner","charochkina","A5793","-","-","-","9.25","Log unit","9.25","Log unit","NCC(O)(C)C","5","","{nr2=[5], oh=[0]}","OC(C)(C)CN","nr2","25.0","?C","","-","LXQMHOKEXZETKB-UHFFFAOYSA"
"CC(C)(N)CO","-","R944961","M1233","-","-","2-amino-1-hydroxy-2-methyl-propane","-","Koerner","charochkina","A5793","-","-","-","9.715","Log unit","9.715","Log unit","NC(CO)(C)C","3","","{nr2=[3], oh=[0]}","OCC(N)(C)C","nr2","25.0","?C","","-","CBTVGIZVANVGBH-UHFFFAOYSA"
"CC(C)(N)CO","-","R944962","M1233","-","-","2-amino-2-hydroxymethylpropane","-","Koerner","charochkina","A5793","-","-","-","9.853","Log unit","9.853","Log unit","NC(CO)(C)C","3","","{nr2=[3], oh=[0]}","OCC(N)(C)C","nr2","25.0","?C","","-","CBTVGIZVANVGBH-UHFFFAOYSA"
"CC(C)(C)N","-","R944963","M13408","-","-","2-amino-2-methyl-propane","-","Koerner","charochkina","A5793","-","-","-","10.54","Log unit","10.54","Log unit","NC(C)(C)C","0","","{nr2=[0]}","NC(C)(C)C","nr2","25.0","?C","","-","YBRBMKDOPFTVDT-UHFFFAOYSA"
"CC(C)CN","-","R944964","M5495","-","-","1-amino-2-methyl-propane","-","Koerner","charochkina","A5793","-","-","-","10.47","Log unit","10.47","Log unit","NCC(C)C","0","","{nr2=[0]}","NCC(C)C","nr2","25.0","?C","","-","KDSNLYIMUZNERS-UHFFFAOYSA"
"NCC(Cl)(Cl)CCl","-","R944965","M1106991","-","-","1-amino-2,2,3-trichloropropane","-","Koerner","charochkina","A5793","-","-","-","6.0","Log unit","6.0","Log unit","NCC(CCl)(Cl)Cl","6","","{nr2=[6]}","ClCC(Cl)(Cl)CN","nr2","25.0","?C","","-","NDEWLALVRNGMPT-UHFFFAOYSA"
"NCCC(Cl)(Cl)Cl","-","R944966","M1106992","-","-","1-amino-3,3,3-tricloro-propane","-","Koerner","charochkina","A5793","-","-","-","9.65","Log unit","9.65","Log unit","NCCC(Cl)(Cl)Cl","6","","{nr2=[6]}","ClC(Cl)(Cl)CCN","nr2","25.0","?C","","-","FWZLRKCFEKMKAV-UHFFFAOYSA"
"NCCC(F)(F)F","-","R944967","M14624","-","-","1-amino-3,3,3-trifluoro-propane","-","Koerner","charochkina","A5793","-","-","-","8.7","Log unit","8.7","Log unit","NCCC(F)(F)F","6","","{nr2=[6]}","FC(F)(F)CCN","nr2","25.0","?C","","-","NGZVNONVXYLYQW-UHFFFAOYSA"
"CN(C)CCC(C(=O)C1=CC=CC=C1)(C1=CC=CC=C1)C1=CC=CC=C1","-","R944968","M1106993","-","-","1-benzoyl-3-dimethylamino-1,1-diphenylpropane","-","Koerner","charochkina","A5793","-","-","-","9.47","Log unit","9.47","Log unit","N(CCC(C(=O)c1ccccc1)(c1ccccc1)c1ccccc1)(C)C","21","","{nr2=[21]}","c(ccc1C(=O)C(-c(ccc2)cc2)(-c(ccc3)cc3)CCN(C)C)cc1","nr2","25.0","?C","","-","JHTLTNIGWZGFGM-UHFFFAOYSA"
"CCN(CC)CCC(OC(=O)CC1=CC=CC=C1)C1=CC=CC=C1","-","R944969","M1106994","-","-","1-benzylcarbonyl-3-diethylamino-1-phenylpropane","-","Koerner","charochkina","A5793","-","-","-","9.46","Log unit","9.46","Log unit","N(CCC(OC(=O)Cc1ccccc1)c1ccccc1)(CC)CC","19","","{nr2=[19]}","c1ccccc1CC(=O)OC(c2ccccc2)CCN(CC)CC","nr2","25.0","?C","","-","XBIQBWVHCYRENY-UHFFFAOYSA"