Smiles,CASRN,Record ID,Molecule ID,External ID,N,Name,Introducer,Modifer,Article ID,PUBMED ID,PAGE,TABLE,pKa,pKa Unit,Temperature,Temperature Unit,Ionizable center smiles,IC group
CN(C)CCC1=CN=CC=C1,-,R933248,M34924,-,-,3-(DIMETHYLAMINOETHYL)PYRIDINE,Koerner,charochkina,A3555,12767145,-,-,8.86,Log unit,,-,N(CCc1cccnc1)(C)C,
CN(C)CC1=CN=CC=C1,-,R933249,M26214,-,-,3-(DIMETHYLAMINOMETHYL)PYRIDINE,Koerner,charochkina,A3555,12767145,-,-,8,Log unit,,-,N(Cc1cccnc1)(C)C,
NC1=CC(=CC=C1)C(F)(F)F,-,R933250,M11729,-,-,3-(Trifluoromethyl)aniline,Koerner,charochkina,A3555,12767145,-,-,3.5,Log unit,,-,Nc1cc(ccc1)C(F)(F)F,
C(CC1=CC=CN=C1)N1CCCC1,-,R933251,M34925,-,-,3-[2-(N-PYRROLIDINYL)ETHYL]PYRIDINE,Koerner,charochkina,A3555,12767145,-,-,9.28,Log unit,,-,N1(CCc2cccnc2)CCCC1,
CC(=O)NC1=CC=CN=C1,-,R933252,M5311,-,-,3-Acetamidopyridine,Koerner,charochkina,A3555,12767145,-,-,4.37,Log unit,,-,n1cc(NC(=O)C)ccc1,
CC(=O)C1=CC=CN=C1,-,R933253,M12202,-,-,3-ACETYLPYRIDINE,Koerner,charochkina,A3555,12767145,-,-,3.26,Log unit,,-,n1cc(ccc1)C(=O)C,
NC1=CC2=C(C=CC=C2)C(=C1)C(O)=O,-,R933254,M124331,-,,3-AMINO-1-NAPHTHOICACID2,Koerner,charochkina,A3555,12767145,-,,4.39,Log unit,,-,Nc1cc(c2ccccc2c1)C(=O)O,
NCCCO,-,R933255,M12615,-,-,3-Amino-1-propanol,Koerner,charochkina,A3555,12767145,-,-,9.96,Log unit,,-,NCCCO,
NC1=CC(=CC=C1)C(O)=O,-,R933256,M12880,-,,3-AMINOBENZOICACID2,Koerner,charochkina,A3555,12767145,-,,4.79,Log unit,,-,Nc1cccc(c1)C(=O)O,
COC(=O)C1=CC=CC(N)=C1,-,R933257,M29445,-,-,3-AMINOBENZOICACIDMETHYLESTER,Koerner,charochkina,A3555,12767145,-,-,3.58,Log unit,,-,Nc1cccc(c1)C(=O)OC,
NC1=CC=CC(=C1)C#N,-,R933258,M7374,-,-,3-Aminobenzonitrile,Koerner,charochkina,A3555,12767145,-,-,1.74,Log unit,,-,Nc1cc(ccc1)C#N,
NC1=CC=CC(=C1)C1=CC=CC=C1,-,R933259,M120343,-,-,3-AMINOBIPHENYL,Koerner,charochkina,A3555,12767145,-,-,4.18,Log unit,,-,Nc1cccc(c1)c1ccccc1,
C[C@H](N)CC(O)=O,-,R933260,M124975,-,-,3-AMINOBUTANOICACID2,Koerner,charochkina,A3555,12767145,-,-,10.14,Log unit,,-,NC(C)CC(=O)O,
CC[C@H](N)CC(O)=O,-,R933261,M124332,-,-,3-AMINOPENTANOICACID2,Koerner,charochkina,A3555,12767145,-,-,10.4,Log unit,,-,NC(CC)CC(=O)O,
NCCC(O)=O,-,R933262,M18635,-,-,3-AMINOPROPANOICACID2,Koerner,charochkina,A3555,12767145,-,-,10.23,Log unit,,-,NCCC(=O)O,
NC1=CC=CN=C1,-,R933263,M1664,-,-,3-Aminopyridine,Koerner,charochkina,A3555,12767145,-,-,6.03,Log unit,,-,n1cc(ccc1)N,
CNC1=C(Br)C=NC=C1,-,R933264,M124454,-,-,3-BROMO-4-METHYLAMINOPYRIDINE,Koerner,charochkina,A3555,12767145,-,-,7.49,Log unit,,-,n1cc(c(cc1)NC)Br,
NC1=CC=CC(Br)=C1,-,R933265,M1970,-,-,3-BROMOANILINE,Koerner,charochkina,A3555,12767145,-,-,3.53,Log unit,,-,Nc1cc(ccc1)Br,
BrC1=CC=CN=C1,-,R933266,M7692,-,-,3-Bromopyridine,Koerner,charochkina,A3555,12767145,-,-,2.85,Log unit,,-,n1cc(ccc1)Br,
BrC1=CC2=C(C=CC=C2)N=C1,-,R933267,M14106,-,-,3-Bromoquinoline,Koerner,charochkina,A3555,12767145,-,-,2.69,Log unit,,-,n1cc(cc2ccccc12)Br,
CC1=C(Cl)C=C(N)C=C1,-,R933268,M9956,-,-,3-Chloro-4-methylaniline,Koerner,charochkina,A3555,12767145,-,-,4.05,Log unit,,-,Nc1ccc(c(c1)Cl)C,
CC1=C(N)C=CC=C1Cl,-,R933269,M14420,-,-,3-Chloro-o-toluidine,Koerner,charochkina,A3555,12767145,-,-,2.49,Log unit,,-,Nc1cccc(c1C)Cl,
NC1=CC(Cl)=CC=C1,-,R933270,M8696,-,-,3-chloroaniline,Koerner,charochkina,A3555,12767145,-,-,3.52,Log unit,,-,Nc1cccc(c1)Cl,
ClC1=CN=CC=C1,-,R933271,M8880,-,-,3-chloropyridine,Koerner,charochkina,A3555,12767145,-,-,2.48,Log unit,,-,n1cccc(c1)Cl,
N#CC1=CC=CN=C1,-,R933272,M3634,-,-,3-Cyanopyridine,Koerner,charochkina,A3555,12767145,-,-,1.45,Log unit,,-,n1cc(ccc1)C#N,
OC(=O)C(Br)(Br)Br,-,R933073,M17426,-,-,TRIBROMOACETICACID,Koerner,charochkina,A3555,12767145,-,-,-0.15,Log unit,,-,OC(=O)C(Br)(Br)Br,
OC(=O)C(Cl)(Cl)Cl,-,R933074,M17430,-,-,TRICHLOROACETICACID,Koerner,charochkina,A3555,12767145,-,-,0.52,Log unit,,-,OC(=O)C(Cl)(Cl)Cl,
OC(=O)C(Cl)=C(Cl)Cl,-,R933075,M26582,-,-,TRICHLOROACRYLICACID,Koerner,charochkina,A3555,12767145,-,-,1.15,Log unit,,-,OC(=O)C(=C(Cl)Cl)Cl,
OC(=O)C(F)(F)F,-,R933076,M15134,-,-,TRIFLUOROACETICACID,Koerner,charochkina,A3555,12767145,-,-,0.6,Log unit,,-,OC(=O)C(F)(F)F,
OC(=O)C(F)=C(F)F,-,R933077,M66353,-,-,TRIFLUOROACRYLICACID,Koerner,charochkina,A3555,12767145,-,-,1.79,Log unit,,-,OC(=O)C(=C(F)F)F,
OC(=O)C(C1=CC=CC=C1)(C1=CC=CC=C1)C1=CC=CC=C1,-,R933078,M22163,-,-,TRIPHENYLACETICACID,Koerner,charochkina,A3555,12767145,-,-,3.96,Log unit,,-,OC(=O)C(c1ccccc1)(c1ccccc1)c1ccccc1,
N[C@@H](CC1=CNC2=CC=CC=C12)C(O)=O,-,R933079,M9178,-,-,TRYPTOPHAN1,Koerner,charochkina,A3555,12767145,-,-,2.46,Log unit,,-,OC(=O)C(N)Cc1c[nH]c2c1cccc2,
N[C@@H](CC1=CC=C(O)C=C1)C(O)=O,-,R933080,M8281,-,-,TYROSINE1,Koerner,charochkina,A3555,12767145,-,-,2.2,Log unit,,-,OC(=O)C(N)Cc1ccc(cc1)O,
N[C@@H](CC1=CC=C(O)C=C1)C(O)=O,-,R933081,M8281,-,-,TYROSINE3,Koerner,charochkina,A3555,12767145,-,-,10.46,Log unit,,-,Oc1ccc(CC(N)C(=O)O)cc1,
O=C1NC2=C(N1)C(=O)NC(=O)N2,-,R933082,M6100,-,-,URICACID,Koerner,charochkina,A3555,12767145,-,-,5.4,Log unit,,-,[nH]1c(=O)[nH]c2c1c(=O)[nH]c(=O)[nH]2,
CC(C)[C@H](N)C(O)=O,-,R933083,M6010,-,-,VALINE1,Koerner,charochkina,A3555,12767145,-,-,2.29,Log unit,,-,OC(=O)C(N)C(C)C,
N[C@H]1CCCC[C@H]1N,-,R933084,M124404,-,-,"1,2-CYCLOHEXANEDIAMINE",Koerner,charochkina,A3555,12767145,-,-,9.84,Log unit,,-,NC1CCCCC1N,
CN1C(C)=NC2=C1C=CC(=C2)N(=O)=O,-,R933085,M124405,-,-,"1,2-DIMETHYL-5-NITROBENZIMIDAZOLE",Koerner,charochkina,A3555,12767145,-,-,4.4,Log unit,,-,n1c(n(c2ccc(cc12)N(=O)=O)C)C,
CN1C(C)=NC2=C1C=C(C=C2)N(=O)=O,-,R933086,M124406,-,-,"1,2-DIMETHYL-6-NITROBENZIMIDAZOLE",Koerner,charochkina,A3555,12767145,-,-,4.2,Log unit,,-,n1c(n(c2cc(ccc12)N(=O)=O)C)C,
CN1C(C)=NC2=C1C=CC=C2,-,R933087,M124407,-,-,"1,2-DIMETHYLBENZIMIDAZOLE",Koerner,charochkina,A3555,12767145,-,-,6.55,Log unit,,-,n1c(n(c2ccccc12)C)C,
N[C@H]1C[C@@H](N)C[C@H](N)C1,-,R933088,M124408,-,-,"1,3,5-CYCLOHEXANETRIAMINE",Koerner,charochkina,A3555,12767145,-,-,10.4,Log unit,,-,NC1CC(CC(C1)N)N,
NCC(CN)CN,-,R933089,M124409,-,-,"1,3-DIAMINO-2-AMINOMETHYLPROPANE",Koerner,charochkina,A3555,12767145,-,-,10.38,Log unit,,-,NCC(CN)CN,
CN1CCCC=C1C,-,R933090,M124410,-,-,"1,4,5,6-TETRAHYDRO-1,2-DIMETHYLPYRIDINE",Koerner,charochkina,A3555,12767145,-,-,11.38,Log unit,,-,N1(C(=CCCC1)C)C,
CC1=CCCCN1,-,R933091,M124411,-,-,"1,4,5,6-TETRAHYDRO-2-METHYLPYRIDINE",Koerner,charochkina,A3555,12767145,-,-,9.53,Log unit,,-,N1C(=CCCC1)C,
NCCCCN,-,R933092,M18732,-,-,"1,4-BUTANEDIAMINE",Koerner,charochkina,A3555,12767145,-,-,10.82,Log unit,,-,NCCCCN,
NCCCCCN,-,R933093,M20570,-,-,"1,5-pentanediamine",Koerner,charochkina,A3555,12767145,-,-,10.92,Log unit,,-,NCCCCCN,
OCCN1C=NC2=C1C=CC=C2,-,R933094,M124412,-,-,1-(2-HYDROXYETHYL)BENZIMIDAZOLE,Koerner,charochkina,A3555,12767145,-,-,5.26,Log unit,,-,n1cn(c2ccccc12)CCO,
C=CCN1CCCCC1,-,R933095,M124413,-,-,1-ALLYLPIPERIDINE,Koerner,charochkina,A3555,12767145,-,-,9.65,Log unit,,-,N1(CC=C)CCCCC1,
NC1(CCCCCC1)C(O)=O,-,R933096,M31559,-,-,1-AMINO-1-CYCLOHEPTANECARBOXYLICACID2,Koerner,charochkina,A3555,12767145,-,-,10.46,Log unit,,-,NC1(CCCCCC1)C(=O)O,
NC1(CCCCC1)C(O)=O,-,R933097,M27358,-,-,1-AMINO-1-CYCLOHEXANECARBOXYLICACID2,Koerner,charochkina,A3555,12767145,-,-,10.03,Log unit,,-,NC1(CCCCC1)C(=O)O,
CCC(CN)(CN)CN,-,R933098,M124414,-,-,1-AMINO-2-DI(AMINOMETHYL)BUTANE,Koerner,charochkina,A3555,12767145,-,-,9.66,Log unit,,-,NCC(CN)(CN)CC,
CC(C)CCN,-,R933099,M862,-,-,1-Amino-3-methylbutane,Koerner,charochkina,A3555,12767145,-,-,10.64,Log unit,,-,NCCC(C)C,
C[C@@H](N)S(O)(=O)=O,-,R933100,M124267,-,-,1-AMINOETHANESULFONICACID2,Koerner,charochkina,A3555,12767145,-,-,9.06,Log unit,,-,NC(C)S(=O)(=O)O,
C(N1CCCC1)C1=CC=CC=C1,-,R933101,M83925,-,-,1-Benzylpyrrolidine,Koerner,charochkina,A3555,12767145,-,-,9.51,Log unit,,-,N1(CCCC1)Cc1ccccc1,
CC1=NC2=C(C=CC=C2)N1CCC#N,-,R933102,M124415,-,-,1-CYANOETHYL-2-METHYLBENZIMIDAZOLE,Koerner,charochkina,A3555,12767145,-,-,5.7,Log unit,,-,n1c(n(c2ccccc12)CCC#N)C,
N#CCCN1C=NC2=C1C=CC=C2,-,R933103,M124416,-,-,1-CYANOETHYLBENZIMIDAZOLE,Koerner,charochkina,A3555,12767145,-,-,4.3,Log unit,,-,n1cn(c2ccccc12)CCC#N,
CCN1CCC=C1C,-,R933104,M124417,-,-,1-ETHYL-2-METHYL-2-PYRROLINE,Koerner,charochkina,A3555,12767145,-,-,11.84,Log unit,,-,N1(CCC=C1C)CC,
CCN1CCCC[C@@H]1C,-,R933105,M124418,-,-,1-ETHYL-2-METHYLPIPERIDINE,Koerner,charochkina,A3555,12767145,-,-,10.66,Log unit,,-,N1(C(CCCC1)C)CC,
CCN1C=NC2=C1C=CC=C2,-,R933106,M124419,-,-,1-ETHYLBENZIMIDAZOLE,Koerner,charochkina,A3555,12767145,-,-,5.59,Log unit,,-,n1cn(c2ccccc12)CC,
CCN1C=CN=C1,-,R933107,M31667,-,-,1-ETHYLIMIDAZOLE,Koerner,charochkina,A3555,12767145,-,-,7.3,Log unit,,-,n1cn(cc1)CC,
OCN1C=NC2=C1C=CC=C2,-,R933108,M124420,-,-,1-HYDROXYMETHYLBENZIMIDAZOLE,Koerner,charochkina,A3555,12767145,-,-,5.41,Log unit,,-,n1cn(c2ccccc12)CO,
CC(C)N1C=NC2=C1C=CC=C2,-,R933109,M124421,-,-,1-ISOPROPYLBENZIMIDAZOLE,Koerner,charochkina,A3555,12767145,-,-,5.71,Log unit,,-,n1cn(c2ccccc12)C(C)C,
CN1CC=CC1,-,R933110,M124422,-,-,1-METHYL-3-PYRROLINE,Koerner,charochkina,A3555,12767145,-,-,9.88,Log unit,,-,N1(CC=CC1)C,
CN1C=NC2=C1C=CC=C2N(=O)=O,-,R933111,M124423,-,-,1-METHYL-4-NITROBENZIMIDAZOLE,Koerner,charochkina,A3555,12767145,-,-,3.86,Log unit,,-,n1cn(c2cccc(c12)N(=O)=O)C,
CN1C=NC(=C1)C1=CC=CC=C1,-,R933112,M124424,-,-,1-METHYL-4-PHENYLIMIDAZOLE,Koerner,charochkina,A3555,12767145,-,-,5.78,Log unit,,-,n1cn(cc1c1ccccc1)C,
CN1C=NC2=C1C=CC(=C2)N(=O)=O,-,R933113,M124425,-,-,1-METHYL-5-NITROBENZIMIDAZOLE,Koerner,charochkina,A3555,12767145,-,-,3.4,Log unit,,-,n1cn(c2ccc(cc12)N(=O)=O)C,
CN1C=NC=C1N(=O)=O,-,R933114,M27746,-,-,1-METHYL-5-NITROIMIDAZOLE,Koerner,charochkina,A3555,12767145,-,-,2.13,Log unit,,-,n1cn(c(c1)N(=O)=O)C,
CN1C=NC2=C1C=C(C=C2)N(=O)=O,-,R933115,M124426,-,-,1-METHYL-6-NITROBENZIMIDAZOLE,Koerner,charochkina,A3555,12767145,-,-,3.67,Log unit,,-,n1cn(c2cc(ccc12)N(=O)=O)C,
CN1C=NC2=C1C(=CC=C2)N(=O)=O,-,R933116,M124427,-,-,1-METHYL-7-NITROBENZIMIDAZOLE,Koerner,charochkina,A3555,12767145,-,-,3.25,Log unit,,-,n1cn(c2c(cccc12)N(=O)=O)C,
CN1C=NC2=C1C=CC=C2,-,R933117,M109304,-,-,1-methylbenzimidazole,Koerner,charochkina,A3555,12767145,-,-,5.54,Log unit,,-,n1cn(c2ccccc12)C,
CN1C=CN=C1,-,R933118,M22534,-,-,1-methylimidazole,Koerner,charochkina,A3555,12767145,-,-,7.06,Log unit,,-,n1cn(cc1)C,
CN1CCCC1,-,R933119,M19070,-,-,1-METHYLPYRROLIDINE,Koerner,charochkina,A3555,12767145,-,-,10.46,Log unit,,-,N1(CCCC1)C,
CCCCN1C=NC2=C1C=C(C)C=C2,-,R933120,M124428,-,-,1-N-BUTYLBENZIMIDAZOLE,Koerner,charochkina,A3555,12767145,-,-,5.29,Log unit,,-,n1cn(c2cc(ccc12)C)CCCC,
CCCN1C=NC2=C1C=CC=C2,-,R933121,M124429,-,-,1-N-PROPYLBENZIMIDAZOLE,Koerner,charochkina,A3555,12767145,-,-,5.44,Log unit,,-,n1cn(c2ccccc12)CCC,
NC1=CC=CC2=C1C=CC=C2,-,R933122,M10056,-,-,1-naphthylamine,Koerner,charochkina,A3555,12767145,-,-,3.92,Log unit,,-,Nc1cccc2ccccc12,
CC1=CC(C)=C(C)N=C1C,-,R933123,M28657,-,-,"2,3,5,6-TETRAMETHYLPYRIDINE",Koerner,charochkina,A3555,12767145,-,-,7.9,Log unit,,-,n1c(c(cc(c1C)C)C)C,
CC1=CC=C(C)C(C)=N1,-,R933124,M25180,-,-,"2,3,6-TRIMETHYLPYRIDINE",Koerner,charochkina,A3555,12767145,-,-,7.6,Log unit,,-,n1c(c(ccc1C)C)C,
C[C@H](N)[C@H](C)N,-,R933125,M124430,-,-,"2,3-BUTANEDIAMINE",Koerner,charochkina,A3555,12767145,-,-,10,Log unit,,-,NC(C(C)N)C,
CC1=CC=CC(N)=C1C,-,R933126,M12003,-,-,"2,3-Dimethylaniline",Koerner,charochkina,A3555,12767145,-,-,4.7,Log unit,,-,Nc1c(c(ccc1)C)C,
CC1=NC(C)=C(C)N1,-,R933127,M67832,-,-,"2,4,5-Trimethylimidazole",Koerner,charochkina,A3555,12767145,-,-,8.92,Log unit,,-,n1c([nH]c(c1C)C)C,
CC1=CC(C)=C(N)C(C)=C1,-,R933128,M5942,-,-,"2,4,6-Trimethylaniline",Koerner,charochkina,A3555,12767145,-,-,4.38,Log unit,,-,Nc1c(cc(cc1C)C)C,
CC1=CC(C)=NC(C)=C1,-,R933129,M18671,-,-,"2,4,6-Trimethylpyridine",Koerner,charochkina,A3555,12767145,-,-,7.43,Log unit,,-,n1c(cc(cc1C)C)C,
CC1=NC2=C(C=CC=C2O)C(C)=C1,-,R933130,M124280,-,-,"2,4-DIMETHYL-8-HYDROXYQUINOLINE",Koerner,charochkina,A3555,12767145,-,-,6.2,Log unit,,-,n1c(cc(c2cccc(c12)O)C)C,
CC1=CC(C)=C(N)C=C1,-,R933131,M1791,-,-,"2,4-Dimethylaniline",Koerner,charochkina,A3555,12767145,-,-,4.89,Log unit,,-,Nc1c(cc(cc1)C)C,
CC1=NC(C)=CN1,-,R933132,M24070,-,-,"2,4-Dimethylimidazole",Koerner,charochkina,A3555,12767145,-,-,8.38,Log unit,,-,n1c([nH]cc1C)C,
CC1=CC(C)=NC=C1,-,R933133,M5390,-,-,"2,4-dimethylpyridine",Koerner,charochkina,A3555,12767145,-,-,6.74,Log unit,,-,n1c(cc(cc1)C)C,
N1C=C(N=C1C1=CC=CC=C1)C1=CC=CC=C1,-,R933134,M124431,-,-,"2,4-DIPHENYLIMIDAZOLE",Koerner,charochkina,A3555,12767145,-,-,5.64,Log unit,,-,n1c([nH]cc1c1ccccc1)c1ccccc1,
NC1=CN=C(N)C=C1,-,R933135,M29207,-,-,"2,5-Diaminopyridine",Koerner,charochkina,A3555,12767145,-,-,6.48,Log unit,,-,n1c(ccc(c1)N)N,
CC1=CC(N)=C(C)C=C1,-,R933136,M11863,-,-,"2,5-Dimethylaniline",Koerner,charochkina,A3555,12767145,-,-,4.53,Log unit,,-,Nc1c(ccc(c1)C)C,
CC1=CN=C(C)C=C1,-,R933137,M13285,-,-,"2,5-dimethylpyridine",Koerner,charochkina,A3555,12767145,-,-,6.43,Log unit,,-,n1c(ccc(c1)C)C,
CC1=CC=CC(C)=C1N,-,R933138,M11016,-,-,"2,6-Dimethylaniline",Koerner,charochkina,A3555,12767145,-,-,3.95,Log unit,,-,Nc1c(cccc1C)C,
CN1C=NC2=C1C=C(C)C=C2,-,R933139,M124432,-,-,"2,6-DIMETHYLBENZIMIDAZOLE",Koerner,charochkina,A3555,12767145,-,-,6,Log unit,,-,n1cn(c2cc(ccc12)C)C,
C[C@H]1CCC[C@@H](C)N1,-,R933140,M124433,-,-,"2,6-Dimethylpiperidine",Koerner,charochkina,A3555,12767145,-,-,11.07,Log unit,,-,N1C(CCCC1C)C,
CC1=CC=CC(C)=N1,-,R933141,M7967,-,-,"2,6-dimethylpyridine",Koerner,charochkina,A3555,12767145,-,-,6.71,Log unit,,-,n1c(cccc1C)C,
CC1=CC2=C(C=C1)N=C(C)C=C2,-,R933142,M23897,-,-,"2,6-Dimethylquinoline",Koerner,charochkina,A3555,12767145,-,-,5.46,Log unit,,-,n1c(ccc2cc(ccc12)C)C,
C(N1CCCC1)C1=CC=CC=N1,-,R933143,M124434,-,-,2-(1-PYRROLIDINYLMETHYL)PYRIDINE,Koerner,charochkina,A3555,12767145,-,-,8.56,Log unit,,-,N1(Cc2ncccc2)CCCC1,
NCCC1=NC=CC=C1,-,R933144,M13140,-,-,2-(2-Aminoethyl)pyridine,Koerner,charochkina,A3555,12767145,-,-,9.78,Log unit,,-,NCCc1ncccc1,
CNCCC1=NC=CC=C1,-,R933145,M11388,-,-,2-(2-METHYLAMINOETHYL)PYRIDINE,Koerner,charochkina,A3555,12767145,-,-,9.65,Log unit,,-,N(CCc1ncccc1)C,
NCCC1=CNC=N1,-,R933146,M7590,-,-,2-(4-Imidazolyl)ethylamine,Koerner,charochkina,A3555,12767145,-,-,9.76,Log unit,,-,NCCc1nc[nH]c1,
CCN(CC)CCOC(=O)C1=CC=C(N)C=C1,-,R933147,M6716,-,-,2-(DIETHYLAMINO)ETHYL4-AMINOBENZOATE,Koerner,charochkina,A3555,12767145,-,-,8.85,Log unit,,-,N(CC)(CCOC(=O)c1ccc(cc1)N)CC,
CN(C)CCO,-,R933148,M18640,-,-,2-(Dimethylamino)ethanol,Koerner,charochkina,A3555,12767145,-,-,9.26,Log unit,,-,N(C)(C)CCO,
CN(C)CC1=CC=CC=N1,-,R933149,M124435,-,-,2-(DIMETHYLAMINOMETHYL)PYRIDINE,Koerner,charochkina,A3555,12767145,-,-,8.12,Log unit,,-,N(Cc1ncccc1)(C)C,
CNCCO,-,R933150,M8141,-,-,2-(Methylamino)ethanol,Koerner,charochkina,A3555,12767145,-,-,9.88,Log unit,,-,N(CCO)C,
CNCC1=NC(C)=CC=C1,-,R933151,M78063,-,-,2-(METHYLAMINOMETHYL)-6-METHYLPYRIDINE,Koerner,charochkina,A3555,12767145,-,-,9.15,Log unit,,-,N(Cc1nc(ccc1)C)C,
CNCC1=NC=CC=C1,-,R933152,M79962,-,-,2-(METHYLAMINOMETHYL)PYRIDINE,Koerner,charochkina,A3555,12767145,-,-,8.82,Log unit,,-,N(Cc1ncccc1)C,
CN(C)CCC1=CC=CC=N1,-,R933153,M2988,-,-,2-[2-(Dimethylamino)ethyl]pyridine,Koerner,charochkina,A3555,12767145,-,-,8.75,Log unit,,-,N(CCc1ncccc1)(C)C,
C(CC1=NC=CC=C1)N1CCCC1,-,R933154,M124451,-,-,2-[2-(N-PYRROLIDINYL)ETHYL]PYRIDINE,Koerner,charochkina,A3555,12767145,-,-,9.39,Log unit,,-,N1(CCc2ncccc2)CCCC1,
CC(=O)C1=NC=CC=C1,-,R933155,M204,-,-,2-acetylpyridine,Koerner,charochkina,A3555,12767145,-,-,2.64,Log unit,,-,n1c(cccc1)C(=O)C,
CC[C@H](N)CO,-,R933156,M75996,-,-,2-Amino-1-butanol,Koerner,charochkina,A3555,12767145,-,-,9.52,Log unit,,-,NC(CC)CO,
N[C@@H]1CCCC[C@@H]1C(O)=O,-,R933157,M124287,-,-,2-AMINO-1-CYCLOHEXANECARBOXYLICACID2,Koerner,charochkina,A3555,12767145,-,-,10.21,Log unit,,-,NC1CCCCC1C(=O)O,
C[C@@H](N)CO,-,R933158,M124436,-,-,2-Amino-1-propanol,Koerner,charochkina,A3555,12767145,-,-,9.47,Log unit,,-,NC(C)CO,
NCCSCCO,-,R933159,M81525,-,-,2-AMINO-2'-HYDROXYDIETHYLSULFIDE,Koerner,charochkina,A3555,12767145,-,-,9.27,Log unit,,-,NCCSCCO,
CCC(N)(CC)CO,-,R933160,M124437,-,-,2-AMINO-2-ETHYL-1-BUTANOL,Koerner,charochkina,A3555,12767145,-,-,9.82,Log unit,,-,NC(CC)(CO)CC,
CC(C)(N)CO,-,R933161,M1233,-,-,2-Amino-2-methyl-1-propanol,Koerner,charochkina,A3555,12767145,-,-,9.96,Log unit,,-,NC(CO)(C)C,
CC(C)(N)C(O)=O,-,R933162,M17262,-,-,2-AMINO-2-METHYLPROPANOICACID2,Koerner,charochkina,A3555,12767145,-,-,10.2,Log unit,,-,NC(C(=O)O)(C)C,
NC1=C(O)C=CC=C1C(O)=O,-,R933163,M66877,-,-,2-AMINO-3-HYDROXYBENZOICACID2,Koerner,charochkina,A3555,12767145,-,-,5.19,Log unit,,-,Nc1c(cccc1C(=O)O)O,
CC(C)(S)[C@@H](N)C(O)=O,-,R933164,M12021,-,-,2-AMINO-3-MERCAPTO-3-METHYLBUTANOICACID2,Koerner,charochkina,A3555,12767145,-,-,10.5,Log unit,,-,SC(C)(C(C(=O)O)N)C,
CC1=CC=CN=C1N,-,R933165,M25447,-,-,2-Amino-3-methylpyridine,Koerner,charochkina,A3555,12767145,-,-,7.24,Log unit,,-,n1c(c(ccc1)C)N,
N[C@H](CCS)C(O)=O,-,R933166,M124288,-,-,2-AMINO-4-MERCAPTOBUTANOICACID2,Koerner,charochkina,A3555,12767145,-,-,10.86,Log unit,,-,SCCC(C(=O)O)N,
CC1=CC(N)=NC=C1,-,R933167,M8193,-,-,2-amino-4-methylpyridine,Koerner,charochkina,A3555,12767145,-,-,7.48,Log unit,,-,n1c(cc(cc1)C)N,
CC1=CN=C(N)C=C1,-,R933168,M1474,-,-,2-AMINO-5-METHYLPYRIDINE,Koerner,charochkina,A3555,12767145,-,-,7.22,Log unit,,-,n1c(N)ccc(c1)C,
CC1=CC=CC(N)=N1,-,R933169,M25821,-,-,2-Amino-6-methylpyridine,Koerner,charochkina,A3555,12767145,-,-,7.41,Log unit,,-,n1c(cccc1C)N,
CC[C@@H](NC(=O)CN)C(O)=O,-,R933170,M124290,-,-,2-AMINO-N-GLYCYLBUTANOICACID2,Koerner,charochkina,A3555,12767145,-,-,8.33,Log unit,,-,NCC(=O)NC(CC)C(=O)O,
NCC(N)=O,-,R933171,M67089,-,-,2-Aminoacetamide,Koerner,charochkina,A3555,12767145,-,-,7.95,Log unit,,-,NCC(=O)N,
NC1=CC=CC=C1C(O)=O,-,R933172,M10119,-,-,2-AMINOBENZOICACID2,Koerner,charochkina,A3555,12767145,-,-,4.79,Log unit,,-,OC(=O)c1ccccc1N,
CC(C)C(C(C)C)(C(O)=O)C(O)=O,-,R932973,M124375,-,-,DIISOPROPYLMALONICACID,Koerner,charochkina,A3555,12767145,-,-,2.12,Log unit,,-,OC(=O)C(C(=O)O)(C(C)C)C(C)C,
OC(=O)C(C1=CC=CC=C1)C1=CC=CC=C1,-,R932974,M8924,-,-,DIPHENYLACETICACID,Koerner,charochkina,A3555,12767145,-,-,3.94,Log unit,,-,OC(=O)C(c1ccccc1)c1ccccc1,
CCCC(CCC)(C(O)=O)C(O)=O,-,R932975,M69900,-,-,DIPROPYLMALONICACID,Koerner,charochkina,A3555,12767145,-,-,2.04,Log unit,,-,OC(=O)C(C(=O)O)(CCC)CCC,
CCOC(=O)CS,-,R932976,M22730,-,-,ETHYL2-MERCAPTOACETATE,Koerner,charochkina,A3555,12767145,-,-,7.95,Log unit,,-,SCC(=O)OCC,
CCOC(=O)CCS,-,R932977,M75565,-,-,ETHYL3-MERCAPTOPROPANOATE,Koerner,charochkina,A3555,12767145,-,-,9.48,Log unit,,-,SCCC(=O)OCC,
CCOC(=O)CC(C)=O,-,R932978,M19584,-,-,ETHYLACETOACETATE,Koerner,charochkina,A3555,12767145,-,-,10.68,Log unit,,-,C(C(=O)C)C(=O)OCC,
OCCO,-,R932979,M6557,-,-,ethyleneglycol,Koerner,charochkina,A3555,12767145,-,-,14.22,Log unit,,-,OCCO,
CCC(C(O)=O)C(O)=O,-,R932980,M22253,-,-,ETHYLMALONICACID,Koerner,charochkina,A3555,12767145,-,-,2.9,Log unit,,-,OC(=O)C(C(=O)O)CC,
CCOC(=O)CN(=O)=O,-,R932981,M22824,-,-,ETHYLNITROACETATE,Koerner,charochkina,A3555,12767145,-,-,5.85,Log unit,,-,C(C(=O)OCC)N(=O)=O,
CCCC(CC)(C(O)=O)C(O)=O,-,R932982,M124376,-,-,ETHYLPROPYLMALONICACID,Koerner,charochkina,A3555,12767145,-,-,3.14,Log unit,,-,OC(=O)C(CC)(CCC)C(=O)O,
CC[C@H](CC(O)=O)C(O)=O,-,R932983,M124377,-,-,ETHYLSUCCINICACID,Koerner,charochkina,A3555,12767145,-,-,4.08,Log unit,,-,OC(=O)C(CC)CC(=O)O,
OC(=O)CF,-,R932984,M19636,-,-,FLUOROACETICACID,Koerner,charochkina,A3555,12767145,-,-,2.59,Log unit,,-,OC(=O)CF,
OC=O,-,R932985,M675,-,-,FORMICACID,Koerner,charochkina,A3555,12767145,-,-,3.75,Log unit,,-,OC=O,
OC(=O)\C=C\C(O)=O,-,R932986,M15231,-,-,FUMARICACID,Koerner,charochkina,A3555,12767145,-,-,3.1,Log unit,,-,OC(=O)C=CC(=O)O,
OC[C@@H](O)[C@H](O)[C@@H](O)[C@H](O)C(O)=O,-,R932987,M124378,-,-,GLUCONICACID,Koerner,charochkina,A3555,12767145,-,-,3.86,Log unit,,-,OC(=O)C(C(C(C(CO)O)O)O)O,
N[C@@H](CCC(O)=O)C(O)=O,-,R932988,M50478,-,-,GLUTAMICACID1,Koerner,charochkina,A3555,12767145,-,-,2.1,Log unit,,-,OC(=O)C(N)CCC(=O)O,
N[C@@H](CCC(O)=O)C(O)=O,-,R932989,M50478,-,-,GLUTAMICACID3,Koerner,charochkina,A3555,12767145,-,-,4.07,Log unit,,-,OC(=O)CCC(N)C(=O)O,
N[C@@H](CCC(N)=O)C(O)=O,-,R932990,M14048,-,-,GLUTAMINE1,Koerner,charochkina,A3555,12767145,-,-,2.17,Log unit,,-,OC(=O)C(N)CCC(=O)N,