Smiles,CASRN,Record ID,Molecule ID,External ID,N,Name,Introducer,Modifer,Article ID,PUBMED ID,PAGE,TABLE,pKa,pKa Unit,Temperature,Temperature Unit,Ionizable center smiles,IC group
CN1CCN(CC1)C(C1=CC=C(F)C=C1)C1=CC=C(F)C=C1,-,R1206439,M1157866,-,-,"Piperazine, 1-(4-fluorobenzhydry)-4-methyl-",Koerner,charochkina,A5793,-,-,-,8.23,Log unit,25,?C,N1(CCN(C(c2ccc(F)cc2)c2ccc(F)cc2)CC1)C,2
N1C=CC=N1,-,R1206441,M12595,-,-,"Pyrazole,",Koerner,charochkina,A5793,-,-,-,2.48,Log unit,25,?C,n1[nH]ccc1,nethR
NCCC1=NNC=C1,-,R1206442,M18525,-,-,"Pyrazole,3-(2-aminoethyl)-",Koerner,charochkina,A5793,-,-,-,9.61,Log unit,25,?C,NCCc1n[nH]cc1,4
CC1=NNC=C1,-,R1206443,M51727,-,-,"Pyrazole,3-methyl-",Koerner,charochkina,A5793,-,-,-,3.56,Log unit,25,?C,n1[nH]ccc1C,nethR
CN1C=CC(=O)C=N1,-,R1206444,M1106659,-,-,"Pyridazine, 1,4-dihydro-1-methyl-4-oxo-:",Koerner,charochkina,A5793,-,-,-,1.02,Log unit,25,?C,n1n(C)ccc(=O)c1,nethR
N1C=CC2=C1C=CC=C2,-,R1206445,M10389,-,-,indole,Koerner,charochkina,A5793,-,-,-,-2.4,Log unit,25,?C,[nH]1ccc2ccccc12,nr2
N1C=CC2=C1C=CC=C2,-,R1206446,M10389,-,-,indole,Koerner,charochkina,A5793,-,-,-,16.5,Log unit,25,?C,[nH]1ccc2ccccc12,nr2_a
NCCC1=CNC2=C1C=CC=C2,-,R1206447,M355,-,-,3-(2-aminoethyl)indole,Koerner,charochkina,A5793,-,-,-,10.2,Log unit,25,?C,NCCc1c2ccccc2[nH]c1,3
COC1=CC2=C(NC=C2CC(C)N)C=C1,-,R1206448,M174345,-,-,3-(2-aminopropyl)-5-methoxyindole,Koerner,charochkina,A5793,-,-,-,10.3,Log unit,25,?C,NC(Cc1c2cc(ccc2[nH]c1)OC)C,3
[NH2+]CCC1=CNC2=C1C=C(O)C=C2,-,R1206449,M1157867,-,-,3-(2-aminoethyl)-5-hydroxyindole,Koerner,charochkina,A5793,-,-,-,10,Log unit,25,?C,Oc1ccc2[nH]cc(c2c1)CC[NH2+],oh
NCCC1=CNC2=C1C=C([O-])C=C2,-,R1206450,M9542,-,-,3-(2-aminoethyl)-5-hydroxyindole,Koerner,charochkina,A5793,-,-,-,11.1,Log unit,25,?C,NCCc1c2cc(ccc2[nH]c1)[O-],3
CC1=CNC2=C1C=CC=C2,-,R1206451,M14089,-,-,3-methylindole,Koerner,charochkina,A5793,-,-,-,16.6,Log unit,25,?C,[nH]1cc(c2ccccc12)C,nr2_a
BrC1=CC2=C(NC=C2)C=C1,-,R1206452,M12060,-,-,5-Bromoindole,Koerner,charochkina,A5793,-,-,-,16.13,Log unit,25,?C,[nH]1ccc2cc(ccc12)Br,nr2_a
FC1=CC=CC2=C1C=CN2,-,R1206453,M743458,-,-,4-Fluoroindole,Koerner,charochkina,A5793,-,-,-,16.3,Log unit,25,?C,[nH]1ccc2c(cccc12)F,nr2_a
FC1=CC2=C(NC=C2)C=C1,-,R1206454,M66277,-,-,5-Fluoroindole,Koerner,charochkina,A5793,-,-,-,16.3,Log unit,25,?C,[nH]1ccc2cc(ccc12)F,nr2_a
O=N(=O)C1=CNC2=C1C=CC=C2,-,R1206455,M1106660,-,-,3-nitroindole,Koerner,charochkina,A5793,-,-,-,10.12,Log unit,25,?C,[nH]1cc(c2ccccc12)N(=O)=O,nr2_a
O=N(=O)C1=CC2=C(NC=C2)C=C1,-,R1206456,M52435,-,-,5-Nitroindole,Koerner,charochkina,A5793,-,-,-,14.75,Log unit,25,?C,[nH]1ccc2cc(ccc12)N(=O)=O,nr2_a
COC1=C(N)C2=C(C(N)=C1)C(=O)C1=CC=CC=C1C2=O,-,R1206461,M27510,-,-,Disperse Red 15,Koerner,charochkina,A5793,-,-,-,0.86,Log unit,25,?C,Nc1cc(c(N)c2C(=O)c3ccccc3C(=O)c12)OC,4
CC(N)C[NH2+],-,R1205535,M1157807,-,-,"1,2-diamino-propane",Koerner,charochkina,A5793,-,-,-,7.1,Log unit,25,?C,NC(C[NH2+])C,nr2
NCCC[NH2+],-,R1205537,M1157808,-,-,"1,3-diamino-propane",Koerner,charochkina,A5793,-,-,-,8.6,Log unit,25,?C,NCCC[NH2+],nr2
NCC(CN)C[NH2+],-,R1205539,M1157809,-,-,"1,3-DIAMINO-2-AMINOMETHYLPROPANE",Koerner,charochkina,A5793,-,-,-,8.86,Log unit,25,?C,NCC(C[NH2+])CN,nr2
NCC(C[NH2+])C[NH2+],-,R1205540,M1157810,-,-,"1,3-DIAMINO-2-AMINOMETHYLPROPANE",Koerner,charochkina,A5793,-,-,-,7.36,Log unit,25,?C,NCC(C[NH2+])C[NH2+],nr2
CC(C)(CN)C[NH2+],-,R1205542,M1157811,-,-,"1,3-diamino-2,2-dimethylpropane",Koerner,charochkina,A5793,-,-,-,8.5,Log unit,25,?C,NCC(C[NH2+])(C)C,nr2
NCC(O)C[NH2+],-,R1205544,M1157812,-,-,"1,3-Diamino-2-hydroxypropane",Koerner,charochkina,A5793,-,-,-,8,Log unit,25,?C,NCC(O)C[NH2+],nr2
CC(C)(N)CN,-,R1205545,M23663,-,-,"1,2-Diamino-2-methylpropane",Koerner,charochkina,A5793,-,-,-,10,Log unit,25,?C,NC(CN)(C)C,4
CC(C)([NH2+])CN,-,R1205546,M1157813,-,-,"1,2-Diamino-2-methylpropane",Koerner,charochkina,A5793,-,-,-,6.79,Log unit,25,?C,NCC([NH2+])(C)C,nr2
CCN(CC)CCC(C(=N)NC1=CC=CC=C1)C1=CC=CC=C1,-,R1205547,M1106655,-,-,1-diethylamino-3-phenyl-3-phenylamidinopropane,Koerner,charochkina,A5793,-,-,-,9.68,Log unit,25,?C,N(CCC(C(=N)Nc1ccccc1)c1ccccc1)(CC)CC,3
CC[N+](CC)CCC(C(=N)NC1=CC=CC=C1)C1=CC=CC=C1,-,R1205548,M1157814,-,-,1-diethylamino-3-phenyl-3-phenylamidinopropane,Koerner,charochkina,A5793,-,-,-,7.18,Log unit,25,?C,N=C(Nc1ccccc1)C(c1ccccc1)CC[N+](CC)CC,neth
CN(C)CCCC(=O)C(CCN(C)C)C1=CC=CC=C1,-,R1205553,M1107002,-,-,1-dimethylamino-3-(3-dimethylamino-1-phenyl)propylcarbonylpropane,Koerner,charochkina,A5793,-,-,-,8.9,Log unit,25,?C,N(CCC(c1ccccc1)C(=O)CCCN(C)C)(C)C,nr2
CN(C)CCCN(C)CCCN(C)C,-,R1205554,M73483,-,-,1-dimethylamino-3-(3-dimethylamino)propylmethylaminopropane,Koerner,charochkina,A5793,-,-,-,9.7,Log unit,25,?C,N(CCCN(CCCN(C)C)C)(C)C,nr2
CN(C)CCCN(C)CCC[N+](C)C,-,R1205555,M1157815,-,-,1-dimethylamino-3-(3-dimethylamino)propylmethylaminopropane,Koerner,charochkina,A5793,-,-,-,9.3,Log unit,25,?C,N(CCC[N+](C)C)(C)CCCN(C)C,2
CN(CCC[N+](C)C)CCC[N+](C)C,-,R1205556,M1157816,-,-,1-dimethylamino-3-(3-dimethylamino)propylmethylaminopropane,Koerner,charochkina,A5793,-,-,-,6.4,Log unit,25,?C,N(CCC[N+](C)C)(C)CCC[N+](C)C,nr2
CN(C)CCC(C(=N)NC1=CC=CC=C1)C1=CC=CC=C1,-,R1205562,M1106656,-,-,1-dimethylamino-3-phenyl-3-phenylamidopropane,Koerner,charochkina,A5793,-,-,-,8.99,Log unit,25,?C,N=C(Nc1ccccc1)C(c1ccccc1)CCN(C)C,3
C[N+](C)CCC(C(=N)NC1=CC=CC=C1)C1=CC=CC=C1,-,R1205563,M1157817,-,-,1-dimethylamino-3-phenyl-3-phenylamidopropane,Koerner,charochkina,A5793,-,-,-,7.13,Log unit,25,?C,N=C(Nc1ccccc1)C(c1ccccc1)CC[N+](C)C,neth
NCC(N)CN,-,R1205572,M1107006,-,-,"1,2,3-triaminopropane",Koerner,charochkina,A5793,-,-,-,9.3,Log unit,25,?C,NCC(N)CN,4
NCC(N)C[NH2+],-,R1205573,M1157818,-,-,"1,2,3-triaminopropane",Koerner,charochkina,A5793,-,-,-,8.3,Log unit,25,?C,NCC(C[NH2+])N,4
NC(C[NH2+])C[NH2+],-,R1205574,M1157819,-,-,"1,2,3-triaminopropane",Koerner,charochkina,A5793,-,-,-,3.99,Log unit,25,?C,NC(C[NH2+])C[NH2+],nr2
CCN(CC)CCCCN,-,R1205584,M82973,-,-,1-amino-4-diethylaminobutane,Koerner,charochkina,A5793,-,-,-,10.3,Log unit,25,?C,N(CCCCN)(CC)CC,nr2
CC(=NO)C(C)(C)N,-,R1205588,M1107010,-,-,2-amino-3-hydroxyimino-2-methylbutane,Koerner,charochkina,A5793,-,-,-,9.12,Log unit,25,?C,ON=C(C)C(N)(C)C,nr2
CCC(N)CN,-,R1205600,M110644,-,-,"1,2-diaminobutane",Koerner,charochkina,A5793,-,-,-,9.388,Log unit,25,?C,NC(CN)CC,4
CC(N)CCN,-,R1205601,M22034,-,-,"1,3-Diaminobutane",Koerner,charochkina,A5793,-,-,-,10.2,Log unit,25,?C,NC(CCN)C,3
CC([NH2+])CCN,-,R1205602,M1157820,-,-,"1,3-Diaminobutane",Koerner,charochkina,A5793,-,-,-,8.72,Log unit,25,?C,NCCC([NH2+])C,nr2
NCCCC[NH2+],-,R1205604,M1157821,-,-,"1,4-diaminobutane",Koerner,charochkina,A5793,-,-,-,9.65,Log unit,25,?C,NCCCC[NH2+],nr2
CC(N)C(C)[NH2+],-,R1205606,M1157822,-,-,"2,3-diaminobutane",Koerner,charochkina,A5793,-,-,-,6.92,Log unit,25,?C,NC(C([NH2+])C)C,nr2
CC(C)(N)C(C)(C)[NH2+],-,R1205608,M1157823,-,-,"2,3-diamino-2,3-dimethylbutane",Koerner,charochkina,A5793,-,-,-,6.9,Log unit,25,?C,NC(C([NH2+])(C)C)(C)C,nr2
CCC(N)(CC)CN,-,R1205609,M1107017,-,-,"1,2-diamino-2-ethylbutane",Koerner,charochkina,A5793,-,-,-,10.08,Log unit,25,?C,NC(CN)(CC)CC,4
CCC([NH2+])(CC)CN,-,R1205610,M1157824,-,-,"1,2-diamino-2-ethylbutane",Koerner,charochkina,A5793,-,-,-,6.62,Log unit,25,?C,NCC([NH2+])(CC)CC,nr2
CCN(CC)CCCC(C)N,-,R1205621,M19538,-,-,2-Amino-5-diethylaminopentane,Koerner,charochkina,A5793,-,-,-,10.1,Log unit,25,?C,N(CCCC(N)C)(CC)CC,2
CCN(CC)CCCC(C)[NH2+],-,R1205622,M1157825,-,-,2-Amino-5-diethylaminopentane,Koerner,charochkina,A5793,-,-,-,9.55,Log unit,25,?C,N(CCCC([NH2+])C)(CC)CC,nr2
NCCCCC[NH2+],-,R1205633,M1157826,-,-,"1,5-diamino-pentane",Koerner,charochkina,A5793,-,-,-,9.43,Log unit,25,?C,NCCCCC[NH2+],nr2
CCC(C)CC(C)N,-,R1205638,M18532,-,-,2-Amino-4-methylhexane,Koerner,charochkina,A5793,-,-,-,10.54,Log unit,25,?C,NC(C)CC(C)CC,2
CC(C)(C)NCCCCCCNC(C)(C)C,-,R1205640,M1107027,-,-,"1,6-bis-t-butylaminohexane",Koerner,charochkina,A5793,-,-,-,10.7,Log unit,25,?C,N(CCCCCCNC(C)(C)C)C(C)(C)C,nr2
NCCCCCC[NH2+],-,R1205644,M1157827,-,-,"1,6-Diaminohexane",Koerner,charochkina,A5793,-,-,-,10.1,Log unit,25,?C,NCCCCCC[NH2+],nr2
CC(=[N+]O)C(C)(C)CCCCCN,-,R1205653,M1157828,-,-,"1-amino-7-hydroxyimino-6,6-dimethyloctane",Koerner,charochkina,A5793,-,-,-,9.12,Log unit,25,?C,NCCCCCC(C(=[N+]O)C)(C)C,nr2
NCCCCCCCC[NH2+],-,R1205657,M1157829,-,-,"1,8-diaminoocatane",Koerner,charochkina,A5793,-,-,-,10.4,Log unit,25,?C,NCCCCCCCC[NH2+],nr2
CC(=NO)C(C)(C)C(N)C(N)C(C)(C)C(C)=NO,-,R1205658,M1107033,-,-,"4,5-diamino-2,7-bishydroxyimino-3,3,6,6-tetramethyloctane",Koerner,charochkina,A5793,-,-,-,8.04,Log unit,25,?C,NC(C(C(C(=NO)C)(C)C)N)C(C(=NO)C)(C)C,nr2
CC(=NO)C(C)(C)C(N)C([NH2+])C(C)(C)C(C)=NO,-,R1205659,M1157830,-,-,"4,5-diamino-2,7-bishydroxyimino-3,3,6,6-tetramethyloctane",Koerner,charochkina,A5793,-,-,-,5.88,Log unit,25,?C,N(=C(C)C(C)(C)C([NH2+])C(N)C(C(=NO)C)(C)C)O,4
CC(=O)C1=CC=C(SC2=CC=C(N)C=C2)C=C1,-,R1205712,M1157831,-,-,4-(p-acetyl)phenylthioaniline,Koerner,charochkina,A5793,-,-,-,3.31,Log unit,25,?C,Nc1ccc(cc1)Sc1ccc(C(=O)C)cc1,2
NC1=CC=CC=C1[NH2+],-,R1205717,M1157832,-,-,2-amino-aniline,Koerner,charochkina,A5793,-,-,-,1.6,Log unit,25,?C,Nc1ccccc1[NH+],nr2
NC1=CC=C(Br)C=C1N,-,R1205718,M747106,-,-,2-amino-4-bromoaniline,Koerner,charochkina,A5793,-,-,-,3.675,Log unit,25,?C,Nc1ccc(Br)cc1N,3
NC1=CC=C(Cl)C=C1N,-,R1205719,M18152,-,-,2-Amino-4-chloroaniline,Koerner,charochkina,A5793,-,-,-,3.75,Log unit,25,?C,Nc1ccc(Cl)cc1N,3
NC1=C(N)C=C(C=C1)C#N,-,R1205720,M748935,-,-,2-amino-4-cyanoaniline,Koerner,charochkina,A5793,-,-,-,2.805,Log unit,25,?C,Nc1c(ccc(c1)C#N)N,4
CCOC1=CC(N)=C(N)C=C1,-,R1205721,M24885,-,-,2-amino-4-ethoxyaniline,Koerner,charochkina,A5793,-,-,-,4.77,Log unit,25,?C,Nc1ccc(cc1N)OCC,4
NC1=CC=C(I)C=C1N,-,R1205722,M1157833,-,-,2-amino-4-iodoaniline,Koerner,charochkina,A5793,-,-,-,3.625,Log unit,25,?C,Nc1ccc(I)cc1N,3
COC1=CC(N)=C(N)C=C1,-,R1205723,M108290,-,-,2-amino-4-methoxyaniline,Koerner,charochkina,A5793,-,-,-,4.795,Log unit,25,?C,Nc1ccc(cc1N)OC,3
CC1=CC(N)=C(N)C=C1,-,R1205724,M20897,-,-,2-amino-4-methylaniline,Koerner,charochkina,A5793,-,-,-,4.61,Log unit,25,?C,Nc1ccc(cc1N)C,3
CC1=CC(N)=C([NH2+])C=C1,-,R1205725,M1157834,-,-,2-amino-4-methylaniline,Koerner,charochkina,A5793,-,-,-,0.98,Log unit,25,?C,Nc1c(ccc(c1)C)[NH+],nr2
NC1=C(N)C=C(C=C1)N(=O)=O,-,R1205726,M18290,-,-,2-AMINO-4-NITROANILINE,Koerner,charochkina,A5793,-,-,-,2.61,Log unit,25,?C,Nc1c(ccc(c1)N(=O)=O)N,3
NC1=CC=CC([NH2+])=C1,-,R1205728,M1157835,-,-,3-amino-aniline,Koerner,charochkina,A5793,-,-,-,2.7,Log unit,25,?C,Nc1cccc(c1)[NH+],nr2
NC1=CC=C([NH2+])C=C1,-,R1205730,M1157836,-,-,4-amino-aniline,Koerner,charochkina,A5793,-,-,-,3.41,Log unit,25,?C,Nc1ccc(cc1)[NH+],nr2
NC1=CC=C(C=C1)C(=O)C1=CC=C(N)C=C1,-,R1205731,M111212,-,-,4-(p-aminobenzoyl)-aniline,Koerner,charochkina,A5793,-,-,-,2.932,Log unit,25,?C,Nc1ccc(cc1)C(=O)c1ccc(N)cc1,nr2
NC1=CC=C(C=C1)C(=O)C1=CC=C([NH2+])C=C1,-,R1205732,M1157837,-,-,4-(p-aminobenzoyl)-aniline,Koerner,charochkina,A5793,-,-,-,1.4,Log unit,25,?C,Nc1ccc(cc1)C(=O)c1ccc([NH+])cc1,nr2
NC1=CC=C(O)C(N)=C1O,-,R1205733,M1107050,-,-,"3-amino-2,6-dihydroxy-aniline",Koerner,charochkina,A5793,-,-,-,9.3,Log unit,25,?C,Oc1c(N)c(ccc1N)O,1
NC1=CC=C(O)C(N)=C1[O-],-,R1205734,M1107050,-,-,"3-amino-2,6-dihydroxy-aniline",Koerner,charochkina,A5793,-,-,-,11.5,Log unit,25,?C,[O-]c1c(N)c(ccc1N)O,oh
NC1=CC=C(O)C(N)=C1O,-,R1205735,M1107050,-,-,"3-amino-2,6-dihydroxy-aniline",Koerner,charochkina,A5793,-,-,-,5.6,Log unit,25,?C,Nc1c(c(N)c(cc1)O)O,6
NC1=C(O)C([NH2+])=CC=C1O,-,R1205736,M1157838,-,-,"3-amino-2,6-dihydroxy-aniline",Koerner,charochkina,A5793,-,-,-,2.9,Log unit,25,?C,Nc1c(O)c([NH+])ccc1O,4
NC1=C(O)C([NH2+])=CC=C1,-,R1205741,M1157839,-,-,3-amino-2-hydroxyaniline,Koerner,charochkina,A5793,-,-,-,3,Log unit,25,?C,Nc1cccc(c1O)[NH+],nr2
NC1=CC(N)=C(O)C=C1,-,R1205742,M12963,-,-,3-amino-4-hydroxy-aniline,Koerner,charochkina,A5793,-,-,-,5.7,Log unit,25,?C,Nc1ccc(O)c(N)c1,5
NC1=C(O)C=CC([NH2+])=C1,-,R1205743,M1157840,-,-,3-amino-4-hydroxy-aniline,Koerner,charochkina,A5793,-,-,-,3.1,Log unit,25,?C,Nc1c(ccc(c1)[NH+])O,nr2
NC1=CC=C(C=C1)S(=O)(=O)C1=CC=C([NH2+])C=C1,-,R1205746,M1157841,-,-,4-(4-amino)phenylsulphonylaniline,Koerner,charochkina,A5793,-,-,-,1.6,Log unit,25,?C,Nc1ccc(S(=O)(=O)c2ccc(cc2)[NH+])cc1,nr2
NC1=CC(=CC=C1Br)N(=O)=O,-,R1205762,M32526,-,-,2-Bromo-5-nitroaniline,Koerner,charochkina,A5793,-,-,-,0.52,Log unit,25,?C,Nc1c(Br)ccc(N(=O)=O)c1,nr2
NC1=CC(Br)=CC=C1N(=O)=O,-,R1205765,M1107054,-,-,5-bromo-2-nitroaniline,Koerner,charochkina,A5793,-,-,-,-1.48,Log unit,25,?C,Nc1cc(Br)ccc1N(=O)=O,nr2
NC1=C(C(Br)=C(C=C1N(=O)=O)N(=O)=O)N(=O)=O,-,R1205766,M1107055,-,-,"3-bromo-2,4,6-trinitroaniline",Koerner,charochkina,A5793,-,-,-,-9.58,Log unit,25,?C,Nc1c(c(Br)c(cc1N(=O)=O)N(=O)=O)N(=O)=O,nr2
CCCCNC1=CC=C(C=C1)C(=O)OCCN(C)C,-,R1205774,M3280,-,-,N-butyl-4-(2-dimethylaminoethoxycarbonyl)aniline,Koerner,charochkina,A5793,-,-,-,8.2,Log unit,25,?C,N(CCOC(=O)c1ccc(cc1)NCCCC)(C)C,2
NC1=CC=C(C=C1Cl)N(=O)=O,-,R1205787,M6316,-,-,2-Chloro-4-nitroaniline,Koerner,charochkina,A5793,-,-,-,-0.94,Log unit,25,?C,Nc1c(Cl)cc(cc1)N(=O)=O,nr2
NC1=CC(=CC=C1Cl)N(=O)=O,-,R1205788,M5932,-,-,2-chloro-5-nitroaniline,Koerner,charochkina,A5793,-,-,-,0.64,Log unit,25,?C,Nc1c(Cl)ccc(N(=O)=O)c1,nr2
NC1=C(C(Cl)=C(C=C1N(=O)=O)N(=O)=O)N(=O)=O,-,R1205791,M1107060,-,-,"3-chloro-2,4,6-trinitroaniline",Koerner,charochkina,A5793,-,-,-,-9.7,Log unit,25,?C,Nc1c(c(Cl)c(cc1N(=O)=O)N(=O)=O)N(=O)=O,nr2
NC1=CC(Cl)=CC=C1N(=O)=O,-,R1205798,M14023,-,-,5-chloro-2-nitro-aniline,Koerner,charochkina,A5793,-,-,-,-1.52,Log unit,25,?C,Nc1cc(Cl)ccc1N(=O)=O,nr2
NC1=CC(=CC(=C1)N(=O)=O)C#N,-,R1205804,M1107063,-,-,5-cyano-3-nitroaniline,Koerner,charochkina,A5793,-,-,-,0.46,Log unit,25,?C,Nc1cc(cc(c1)N(=O)=O)C#N,nr2
NC1=CC(N)=C(N)C=C1,-,R1205811,M22514,-,-,"2,4-diamino-aniline",Koerner,charochkina,A5793,-,-,-,6.1,Log unit,25,?C,Nc1ccc(N)c(N)c1,6
NC1=C(N)C=C([NH2+])C=C1,-,R1205812,M1157842,-,-,"2,4-diamino-aniline",Koerner,charochkina,A5793,-,-,-,3.7,Log unit,25,?C,Nc1ccc(cc1N)[NH+],3
NC1=CC(N)=C(O)C(N)=C1O,-,R1205813,M1107069,-,-,"3,5-diamino-2,4-dihydroxy-aniline",Koerner,charochkina,A5793,-,-,-,5.8,Log unit,25,?C,Nc1cc(c(O)c(c1O)N)N,6
NC1=C(O)C(N)=C(O)C([NH2+])=C1,-,R1205814,M1157843,-,-,"3,5-diamino-2,4-dihydroxy-aniline",Koerner,charochkina,A5793,-,-,-,3.6,Log unit,25,?C,Nc1c(O)c(cc([NH+])c1O)N,5
NC1=C(O)C([NH2+])=C(O)C([NH2+])=C1,-,R1205815,M1157844,-,-,"3,5-diamino-2,4-dihydroxy-aniline",Koerner,charochkina,A5793,-,-,-,1.2,Log unit,25,?C,Nc1c(O)c(c(c(c1)[NH+])O)[NH+],nr2
NC1=CC(N)=C(O)C(N)=C1O,-,R1205816,M1107069,-,-,"3,5-diamino-2,4-dihydroxy-aniline",Koerner,charochkina,A5793,-,-,-,10.1,Log unit,25,?C,Oc1c(cc(N)c(c1N)O)N,1
NC1=CC(N)=C([O-])C(N)=C1O,-,R1205817,M1107069,-,-,"3,5-diamino-2,4-dihydroxy-aniline",Koerner,charochkina,A5793,-,-,-,11.9,Log unit,25,?C,[O-]c1c(cc(N)c(c1N)O)N,1
NC1=CC(N)=C(O)C(N)=C1,-,R1205819,M31156,-,-,"3,5-diamino-2-hydroxy-aniline",Koerner,charochkina,A5793,-,-,-,6,Log unit,25,?C,Nc1cc(N)c(c(c1)N)O,6
NC1=CC([NH2+])=CC(N)=C1O,-,R1205820,M1157845,-,-,"3,5-diamino-2-hydroxy-aniline",Koerner,charochkina,A5793,-,-,-,2.8,Log unit,25,?C,Nc1c(c(N)cc(c1)[NH+])O,nr2
NC1=C(O)C([NH2+])=CC([NH2+])=C1,-,R1205821,M1157846,-,-,"3,5-diamino-2-hydroxy-aniline",Koerner,charochkina,A5793,-,-,-,1.3,Log unit,25,?C,Nc1c(O)c([NH+])cc([NH+])c1,nr2
NC1=CC(N)=C(O)C([NH2+])=C1,-,R1205822,M1157845,-,-,"3,5-diamino-2-hydroxy-aniline",Koerner,charochkina,A5793,-,-,-,3.1,Log unit,25,?C,Nc1cc(cc([NH+])c1O)N,4
CCCCN(CCCC)CCOC(=O)C1=CC=C(N)C=C1,-,R1205835,M1157847,-,-,4-[3-(dibutylamino)propoxycarbonyl]aniline,Koerner,charochkina,A5793,-,-,-,8.96,Log unit,25,?C,N(CCOC(=O)c1ccc(cc1)N)(CCCC)CCCC,2
NC1=CC(Cl)=C(C=C1Cl)N(=O)=O,-,R1205849,M31354,-,-,"2,5-dichloro-4-nitro",Koerner,charochkina,A5793,-,-,-,-1.74,Log unit,25,?C,Nc1c(Cl)cc(c(Cl)c1)N(=O)=O,nr2
NC1=C(Cl)C=C(C=C1Cl)N(=O)=O,-,R1205850,M801,-,-,"2,6-dichloro-4-nitro-aniline",Koerner,charochkina,A5793,-,-,-,-2.55,Log unit,25,?C,Nc1c(Cl)cc(cc1Cl)N(=O)=O,nr2
CCN(CC)C1=C(C=C(C=C1)N(=O)=O)N(=O)=O,-,R1205856,M1107076,-,-,"N,N-diethyl-2,4-dinitroaniline",Koerner,charochkina,A5793,-,-,-,0.195,Log unit,25,?C,N(c1ccc(cc1N(=O)=O)N(=O)=O)(CC)CC,nr2
CN(C)C1=CC=CC(=C1)N(=O)=O,-,R1205888,M22604,-,-,"N,N-Dimethyl-3-nitroaniline",Koerner,charochkina,A5793,-,-,-,2.64,Log unit,25,?C,N(c1cccc(c1)N(=O)=O)(C)C,nr2
CC1=C(N)C=CC(=C1C)N(=O)=O,-,R1205890,M1107081,-,-,"2,3-dimethyl-4-nitro-aniline",Koerner,charochkina,A5793,-,-,-,1.96,Log unit,25,?C,Nc1ccc(c(C)c1C)N(=O)=O,nr2
CN(C)C1=C(C=C(C=C1N(=O)=O)N(=O)=O)N(=O)=O,-,R1205895,M71386,-,-,"N,N-Dimethyl-2,4,6-trinitroaniline",Koerner,charochkina,A5793,-,-,-,-4.915,Log unit,25,?C,N(c1c(cc(cc1N(=O)=O)N(=O)=O)N(=O)=O)(C)C,nr2
NC1=C(C=C(C=C1)N(=O)=O)N(=O)=O,-,R1205896,M6549,-,-,"2,4-dinitro-aniline",Koerner,charochkina,A5793,-,-,-,-4.475,Log unit,25,?C,Nc1ccc(cc1N(=O)=O)N(=O)=O,nr2
NC1=CC(=C(C=C1)N(=O)=O)N(=O)=O,-,R1205898,M36738,-,-,"3,4-dinitro-aniline",Koerner,charochkina,A5793,-,-,-,-1.2,Log unit,25,?C,Nc1ccc(N(=O)=O)c(N(=O)=O)c1,nr2
NC1=CC(=CC(=C1)N(=O)=O)N(=O)=O,-,R1205899,M6917,-,-,"3,5-dinitro-aniline",Koerner,charochkina,A5793,-,-,-,0.245,Log unit,25,?C,Nc1cc(cc(c1)N(=O)=O)N(=O)=O,nr2
CCOC(=O)C1=C(C=CC(N)=C1)N(=O)=O,-,R1205908,M1107084,-,-,3-ethoxycarbonyl-4-nitroaniline,Koerner,charochkina,A5793,-,-,-,-0.11,Log unit,25,?C,Nc1ccc(N(=O)=O)c(C(=O)OCC)c1,nr2
NC1=CC(=CC=C1F)N(=O)=O,-,R1205924,M66194,-,-,2-Fluoro-5-nitroaniline,Koerner,charochkina,A5793,-,-,-,1.09,Log unit,25,?C,Nc1c(F)ccc(N(=O)=O)c1,nr2
COC1=C(O)C(CN)=CC=C1,-,R1205939,M1107090,-,-,1-hydroxy-2-methoxybenzylamine,Koerner,charochkina,A5793,-,-,-,8.7,Log unit,25,?C,Oc1c(cccc1CN)OC,nr2
COC1=C(O)C(CN)=CC=C1,-,R1205940,M1107090,-,-,1-hydroxy-2-methoxybenzylamine,Koerner,charochkina,A5793,-,-,-,10.5,Log unit,25,?C,NCc1cccc(OC)c1O,oh
NC1=CC(O)=CC=C1N(=O)=O,-,R1205945,M1107092,-,-,5-hydroxy-2-nitroaniline,Koerner,charochkina,A5793,-,-,-,-0.55,Log unit,25,?C,Nc1cc(O)ccc1N(=O)=O,nr2
COC1=CC(=CC(N)=C1)N(=O)=O,-,R1205974,M1107100,-,-,3-methoxy-5-nitroaniline,Koerner,charochkina,A5793,-,-,-,2.11,Log unit,25,?C,Nc1cc(cc(c1)N(=O)=O)OC,nr2
COC1=C(N)C=C(C=C1)N(=O)=O,-,R1205977,M18291,-,-,2-METHOXY-5-NITROANILINE,Koerner,charochkina,A5793,-,-,-,2.49,Log unit,25,?C,Nc1c(ccc(c1)N(=O)=O)OC,nr2
COC1=C(C=C(N)C=C1)N(=O)=O,-,R1205979,M111060,-,-,4-Methoxy-3-nitroaniline,Koerner,charochkina,A5793,-,-,-,3.36,Log unit,25,?C,Nc1ccc(OC)c(N(=O)=O)c1,nr2
[NH2+]CCCCCCCCCCP(O)([O-])=O,-,R1205073,M1157757,-,-,10-amino-n-decyllphosphonic acid,Koerner,charochkina,A5793,-,-,-,8,Log unit,25,?C,OP(=O)([O-])CCCCCCCCCC[NH2+],po2h
C[N+](C)C1=CC=C(C=C1)P(O)(O)=O,-,R1205127,M1157758,-,-,p-dimethylaminophenylphosphonic acid,Koerner,charochkina,A5793,-,-,-,2,Log unit,25,?C,OP(=O)(O)c1ccc([N+](C)C)cc1,po2h
OC(=O)C1=CC(=CC=C1)P(O)([O-])=O,-,R1205142,M340746,-,-,benzoic acid-3-phosphonic acid,Koerner,charochkina,A5793,-,-,-,4.03,Log unit,25,?C,OP(=O)([O-])c1cccc(c1)C(=O)O,co2h
OP([O-])(=O)C1=CC=CC(=C1)C([O-])=O,-,R1205143,M340746,-,-,benzoic acid-3-phosphonic acid,Koerner,charochkina,A5793,-,-,-,7.03,Log unit,25,?C,[O-]C(=O)c1cc(P(=O)(O)[O-])ccc1,po2h
C[N+](C)C1=CC=C(C=C1)P(O)=O,-,R1205166,M1157759,-,-,p-dimethylaminophenylphosphinic acid,Koerner,charochkina,A5793,-,-,-,2.1,Log unit,25,?C,OP(=O)c1ccc([N+](C)C)cc1,po2h
OC(=O)C[As](O)(O)=O,-,R1205203,M51433,-,-,arson-acetic acid,Koerner,charochkina,A5793,-,-,-,3.2,Log unit,25,?C,OC(=O)C[As](=O)(O)O,aso2h
OC(=O)C[As](O)([O-])=O,-,R1205204,M51433,-,-,arson-acetic acid,Koerner,charochkina,A5793,-,-,-,4.7,Log unit,25,?C,[O-][As](=O)(O)CC(=O)O,co2h
OC(=O)CCC[As](O)(O)=O,-,R1205205,M1050620,-,-,arson-butyric acid,Koerner,charochkina,A5793,-,-,-,3.3,Log unit,25,?C,OC(=O)CCC[As](=O)(O)O,aso2h
OC(=O)CCC[As](O)([O-])=O,-,R1205206,M1050620,-,-,arson-butyric acid,Koerner,charochkina,A5793,-,-,-,4.9,Log unit,25,?C,[O-][As](=O)(O)CCCC(=O)O,co2h
OC(=O)CCCC[As](O)([O-])=O,-,R1205208,M1050621,-,-,arson-valeric acid,Koerner,charochkina,A5793,-,-,-,4.88,Log unit,25,?C,[O-][As](=O)(O)CCCCC(=O)O,co2h