"SMILES","CASRN","RECORDID","MOLECULEID","EXTERNALID","N","NAME","NAME","INTRODUCER","MODIFIER","ARTICLEID","PUBMEDID","PAGE","TABLE","pKa (smiles as ob. cond.) {measured}","UNIT {pKa (smiles as ob. cond.)}","pKa (smiles as ob. cond.) {measured, converted}","UNIT {pKa (smiles as ob. cond.)}","Ionizable centre (smiles)","IC group detected","AtomNR of IC","groupsAndICs","IC smiles given","IC group given","Temperature","UNIT {Temperature}","MultiGroupDetection","COMMENTS","INCHI_KEY"
"COC1=C(O)C=CC=C1CN","-","R945363","M1107091","-","-","2-hydroxy-1-methoxybenzylamine","-","Koerner","charochkina","A5793","-","-","-","10.5","Log unit","10.5","Log unit","Oc1cccc(c1OC)CN","3","","{nr2=[10], oh=[3]}","c(cc(O)c1OC)cc1CN","oh","25.0","?C","","-","MWMAXRIRXNYYMV-UHFFFAOYSA"
"CNC1=CC=C(O)C=C1","-","R945364","M19698","-","-","4-hydroxy-N-methylaniline","-","Koerner","charochkina","A5793","-","-","-","5.9","Log unit","5.9","Log unit","N(c1ccc(cc1)O)C","4","","{nr2=[4], oh=[8]}","c(cc(c1)NC)c(c1)O","nr2","25.0","?C","","-","ZFIQGRISGKSVAG-UHFFFAOYSA"
"NC1=CC=C(O)C=C1N(=O)=O","-","R945365","M67173","-","-","4-Hydroxy-2-nitroaniline","-","Koerner","charochkina","A5793","-","-","-","9.0","Log unit","9.0","Log unit","Oc1ccc(N)c(c1)N(=O)=O","0","","{nr2=[5, 8], oh=[0]}","O-c(ccc1N)cc1N(=O)=O","oh","25.0","?C","","-","IQXUIDYRTHQTET-UHFFFAOYSA"
"NC1=CC(O)=CC=C1N(=O)=O","-","R945366","M1107092","-","-","5-hydroxy-2-nitroaniline","-","Koerner","charochkina","A5793","-","-","-","-0.55","Log unit","-0.55","Log unit","N(=O)(=O)c1ccc(O)cc1N","5","","{nr2=[5, 10], oh=[0]}","O-c(ccc1N(=O)=O)cc1N","nr2","25.0","?C","true","-","WGEZJWMZNGUEHR-UHFFFAOYSA"
"NC1=CC(=CC=C1O)S([O-])(=O)=O","-","R945367","M11181","-","-","2-hydroxy-5-sulphoaniline","-","Koerner","charochkina","A5793","-","-","-","4.121","Log unit","4.121","Log unit","Nc1cc(S(=O)(=O)[O-])ccc1O","11","","{nr2=[11], oh=[8]}","S([O-1])(=O)(=O)-c(ccc1O)cc1N","nr2","25.0","?C","","-","ULUIMLJNTCECJU-UHFFFAOYSA"
"NC1=CC(=CC=C1O)S([O-])(=O)=O","-","R945368","M11181","-","-","2-hydroxy-5-sulphoaniline","-","Koerner","charochkina","A5793","-","-","-","9.146","Log unit","9.146","Log unit","Oc1ccc(S(=O)(=O)[O-])cc1N","8","","{nr2=[11], oh=[8]}","S([O-1])(=O)(=O)-c(ccc1O)cc1N","oh","25.0","?C","","-","ULUIMLJNTCECJU-UHFFFAOYSA"
"NC1=CC=CC=C1I","-","R945369","M10934","-","-","2-iodo-aniline","-","Koerner","charochkina","A5793","-","-","-","2.605","Log unit","2.605","Log unit","Nc1c(I)cccc1","7","","{nr2=[7]}","I-c(ccc1)c(c1)N","nr2","25.0","?C","","-","UBPDKIDWEADHPP-UHFFFAOYSA"
"NC1=CC(I)=CC=C1","-","R945370","M2551","-","-","3-iodo-aniline","-","Koerner","charochkina","A5793","-","-","-","3.6","Log unit","3.6","Log unit","Nc1cc(I)ccc1","7","","{nr2=[7]}","I-c(ccc1)cc1N","nr2","25.0","?C","","-","FFCSRWGYGMRBGD-UHFFFAOYSA"
"NC1=CC=C(I)C=C1","-","R945371","M21457","-","-","4-iodo-aniline","-","Koerner","charochkina","A5793","-","-","-","3.785","Log unit","3.785","Log unit","Nc1ccc(I)cc1","5","","{nr2=[5]}","I-c(ccc1N)cc1","nr2","25.0","?C","","-","VLVCDUSVTXIWGW-UHFFFAOYSA"
"CSC1=CC=C(N)C(I)=C1","-","R945372","M1107093","-","-","2-iodo-4-methylthioaniline","-","Koerner","charochkina","A5793","-","-","-","2.45","Log unit","2.45","Log unit","Nc1c(I)cc(SC)cc1","9","","{nr2=[9]}","I-c(cc(SC)c1)c(c1)N","nr2","25.0","?C","","-","GSOYWOHDSKTUTO-UHFFFAOYSA"
"CSC1=CC=C(N)C=C1I","-","R945373","M1107094","-","-","3-iodo-4-methylthioaniline","-","Koerner","charochkina","A5793","-","-","-","3.44","Log unit","3.44","Log unit","Nc1cc(I)c(SC)cc1","5","","{nr2=[5]}","I-c(cc(c1)N)c(SC)c1","nr2","25.0","?C","","-","ISRULUJNENOMCW-UHFFFAOYSA"
"NC1=CC(=CC(I)=C1)N(=O)=O","-","R945374","M1107095","-","-","5-iodo-3-nitroaniline","-","Koerner","charochkina","A5793","-","-","-","1.44","Log unit","1.44","Log unit","Nc1cc(I)cc(c1)N(=O)=O","5","","{nr2=[5, 8]}","I-c(cc(c1)N)cc1N(=O)=O","nr2","25.0","?C","true","-","BKYNSFHBQVINES-UHFFFAOYSA"
"CC(C)CN(C)C1=CC=CC=C1","-","R945375","M1107096","-","-","N-isobutyl-N-methylaniline","-","Koerner","charochkina","A5793","-","-","-","5.2","Log unit","5.2","Log unit","N(c1ccccc1)(C)CC(C)C","4","","{nr2=[4]}","c(ccc1N(C)CC(C)C)cc1","nr2","25.0","?C","","-","VOFKUYCFQAJCSR-UHFFFAOYSA"
"CC(C)NC1=CC=CC=C1","-","R945376","M23587","-","-","N-ISOPROPYLANILINE","-","Koerner","charochkina","A5793","-","-","-","5.5","Log unit","5.5","Log unit","N(c1ccccc1)C(C)C","4","","{nr2=[4]}","c(ccc1NC(C)C)cc1","nr2","25.0","?C","","-","FRCFWPVMFJMNDP-UHFFFAOYSA"
"CC(C)C1=CC=CC=C1N","-","R945377","M13594","-","-","2-isopropyl-aniline","-","Koerner","charochkina","A5793","-","-","-","4.42","Log unit","4.42","Log unit","Nc1ccccc1C(C)C","9","","{nr2=[9]}","c(ccc1C(C)C)cc1N","nr2","25.0","?C","","-","YKOLZVXSPGIIBJ-UHFFFAOYSA"
"CC(C)C1=CC=CC(N)=C1","-","R945378","M145911","-","-","3-isopropyl-aniline","-","Koerner","charochkina","A5793","-","-","-","4.67","Log unit","4.67","Log unit","Nc1cccc(c1)C(C)C","4","","{nr2=[4]}","c(cc(c1)N)cc1C(C)C","nr2","25.0","?C","","-","XCCNRBCNYGWTQX-UHFFFAOYSA"
"CC(C)C1=CC=C(N)C=C1","-","R945379","M6420","-","-","4-Isopropylaniline","-","Koerner","charochkina","A5793","-","-","-","4.85","Log unit","4.85","Log unit","Nc1ccc(cc1)C(C)C","9","","{nr2=[9]}","c(cc(c1)C(C)C)c(c1)N","nr2","25.0","?C","","-","LRTFPLFDLJYEKT-UHFFFAOYSA"
"CC(C)S(=O)(=O)C1=CC=C(N)C=C1","-","R945380","M1107097","-","-","4-isopropylsulphonylaniline","-","Koerner","charochkina","A5793","-","-","-","1.4","Log unit","1.4","Log unit","Nc1ccc(S(=O)(=O)C(C)C)cc1","10","","{nr2=[10]}","S(=O)(=O)(C(C)C)-c(ccc1N)cc1","nr2","25.0","?C","","-","DIHIFAYUBGSXGR-UHFFFAOYSA"
"CC(C)SC1=CC=C(N)C=C1","-","R945381","M1107098","-","-","4-isopropylthioaniline","-","Koerner","charochkina","A5793","-","-","-","3.89","Log unit","3.89","Log unit","Nc1ccc(SC(C)C)cc1","8","","{nr2=[8]}","S(C(C)C)-c(ccc1N)cc1","nr2","25.0","?C","","-","LARPKBYKCBGIEF-UHFFFAOYSA"
"NC1=CC=CC=C1S","-","R945382","M19470","-","-","2-mercapto-aniline","-","Koerner","charochkina","A5793","-","-","-","3.0","Log unit","3.0","Log unit","Nc1c(S)cccc1","7","","{sh=[0], nr2=[7]}","S-c(ccc1)c(c1)N","nr2","25.0","?C","","-","VRVRGVPWCUEOGV-UHFFFAOYSA"
"COC1=CC=CC=C1N","-","R945383","M11807","-","-","2-METHOXY-ANILINE","-","Koerner","charochkina","A5793","-","-","-","4.56","Log unit","4.56","Log unit","Nc1ccccc1OC","8","","{nr2=[8]}","c(ccc1OC)cc1N","nr2","25.0","?C","","-","VMPITZXILSNTON-UHFFFAOYSA"
"COC1=CC=CC(N)=C1","-","R945384","M7180","-","-","3-methoxy-aniline","-","Koerner","charochkina","A5793","-","-","-","4.235","Log unit","4.235","Log unit","Nc1cccc(c1)OC","4","","{nr2=[4]}","c(cc(c1)N)cc1OC","nr2","25.0","?C","","-","NCBZRJODKRCREW-UHFFFAOYSA"
"COC1=CC=C(N)C=C1","-","R945385","M760","-","-","4-METHOXY-ANILINE","-","Koerner","charochkina","A5793","-","-","-","5.335","Log unit","5.335","Log unit","Nc1ccc(cc1)OC","8","","{nr2=[8]}","c(cc(c1)OC)c(c1)N","nr2","25.0","?C","","-","BHAAPTBBJKJZER-UHFFFAOYSA"
"COC(=O)C1=CC=CC=C1N","-","R945386","M19421","-","-","2-methoxycarbonyl-aniline","-","Koerner","charochkina","A5793","-","-","-","2.23","Log unit","2.23","Log unit","Nc1ccccc1C(=O)OC","10","","{nr2=[10]}","c(ccc1C(=O)OC)cc1N","nr2","25.0","?C","","-","VAMXMNNIEUEQDV-UHFFFAOYSA"
"COC(=O)C1=CC=CC(N)=C1","-","R945387","M29445","-","-","3-METHOXYCARBONYLANILINE","-","Koerner","charochkina","A5793","-","-","-","3.495","Log unit","3.495","Log unit","Nc1cccc(C(=O)OC)c1","10","","{nr2=[10]}","c(ccc1C(=O)OC)c(c1)N","nr2","25.0","?C","","-","VZDNXXPBYLGWOS-UHFFFAOYSA"
"COC(=O)C1=CC=C(N)C=C1","-","R945388","M6596","-","-","4-METHOXYCARBONYLANILINE","-","Koerner","charochkina","A5793","-","-","-","2.435","Log unit","2.435","Log unit","Nc1ccc(cc1)C(=O)OC","10","","{nr2=[10]}","c(cc(c1)C(=O)OC)c(c1)N","nr2","25.0","?C","","-","LZXXNPOYQCLXRS-UHFFFAOYSA"
"COC(=O)C1=CC=CC=C1N(C)C","-","R945389","M79656","-","-","2-methoxycarbonyl-N,N-dimethylaniline","-","Koerner","charochkina","A5793","-","-","-","3.78","Log unit","3.78","Log unit","N(c1ccccc1C(=O)OC)(C)C","10","","{nr2=[10]}","c(ccc1C(=O)OC)cc1N(C)C","nr2","25.0","?C","","-","ZCNSBHAIPOWHJE-UHFFFAOYSA"
"COC(=O)C1=CC=CC(=C1)N(C)C","-","R945390","M1107099","-","-","3-methoxycarbonyl-N,N-dimethylaniline","-","Koerner","charochkina","A5793","-","-","-","3.86","Log unit","3.86","Log unit","N(c1cccc(c1)C(=O)OC)(C)C","4","","{nr2=[4]}","c(cc(c1)N(C)C)cc1C(=O)OC","nr2","25.0","?C","","-","CABFTHPIDKWPNQ-UHFFFAOYSA"
"COC(=O)C1=CC=C(C=C1)N(C)C","-","R945391","M68938","-","-","4-methoxycarbonyl-N,N-dimethylaniline","-","Koerner","charochkina","A5793","-","-","-","2.52","Log unit","2.52","Log unit","N(c1ccc(cc1)C(=O)OC)(C)C","10","","{nr2=[10]}","c(cc(c1)C(=O)OC)c(c1)N(C)C","nr2","25.0","?C","","-","DBQGARDMYOMOOS-UHFFFAOYSA"
"CNC1=CC=CC=C1C(=O)OC","-","R945392","M17795","-","-","2-methoxycarbonyl-N-methylaniline","-","Koerner","charochkina","A5793","-","-","-","3.53","Log unit","3.53","Log unit","N(c1ccccc1C(=O)OC)C","10","","{nr2=[10]}","c(ccc1C(=O)OC)cc1NC","nr2","25.0","?C","","-","GVOWHGSUZUUUDR-UHFFFAOYSA"
"CNC1=CC=C(C=C1)C(=O)OC","-","R945393","M6244","-","-","4-methoxycarbonyl-N-methylaniline","-","Koerner","charochkina","A5793","-","-","-","2.32","Log unit","2.32","Log unit","N(c1ccc(cc1)C(=O)OC)C","10","","{nr2=[10]}","c(cc(c1)C(=O)OC)c(c1)NC","nr2","25.0","?C","","-","LLAMGYUWYUMHCH-UHFFFAOYSA"
"COC1=CC=C(C=C1)N(C)C","-","R945394","M14387","-","-","4-Methoxy-N,N-dimethylaniline","-","Koerner","charochkina","A5793","-","-","-","5.8735","Log unit","5.8735","Log unit","N(c1ccc(cc1)OC)(C)C","4","","{nr2=[4]}","c(cc(c1)N(C)C)c(c1)OC","nr2","25.0","?C","","-","ZTKDMNHEQMILPE-UHFFFAOYSA"
"COC1=CC(=CC(N)=C1)N(=O)=O","-","R945395","M1107100","-","-","3-methoxy-5-nitroaniline","-","Koerner","charochkina","A5793","-","-","-","2.11","Log unit","2.11","Log unit","N(=O)(=O)c1cc(cc(c1)OC)N","4","","{nr2=[4, 7]}","c(c(cc1N(=O)=O)N)c(c1)OC","nr2","25.0","?C","true","-","BGWUXZLHDLNYHW-UHFFFAOYSA"
"COC(=O)C1=C(C)C=C(N)C=C1","-","R945396","M1107101","-","-","4-methoxycarbonyl-3-methylaniline","-","Koerner","charochkina","A5793","-","-","-","2.73","Log unit","2.73","Log unit","Nc1ccc(c(C)c1)C(=O)OC","11","","{nr2=[11]}","c(cc(c1C)C(=O)OC)c(c1)N","nr2","25.0","?C","","-","NRTWXBXJSGGTTE-UHFFFAOYSA"
"COC(=O)C1=CC(=C(N)C=C1)N(=O)=O","-","R945397","M1107102","-","-","4-methoxycarbonyl-2-nitroaniline","-","Koerner","charochkina","A5793","-","-","-","-2.59","Log unit","-2.59","Log unit","Nc1ccc(cc1N(=O)=O)C(=O)OC","9","","{nr2=[9, 11]}","c(cc(c1)C(=O)OC)c(N)c1N(=O)=O","nr2","25.0","?C","true","-","HNTLUEZVPLRQEV-UHFFFAOYSA"
"COC1=C(N)C=C(C=C1)N(=O)=O","-","R945398","M18291","-","-","2-METHOXY-5-NITROANILINE","-","Koerner","charochkina","A5793","-","-","-","2.49","Log unit","2.49","Log unit","N(=O)(=O)c1ccc(OC)c(c1)N","4","","{nr2=[4, 11]}","c(cc(c1)N(=O)=O)c(OC)c1N","nr2","25.0","?C","true","-","NIPDVSLAMPAWTP-UHFFFAOYSA"
"COC1=CC(=C(N)C=C1)N(=O)=O","-","R945399","M18193","-","-","4-Methoxy-2-nitroaniline","-","Koerner","charochkina","A5793","-","-","-","0.75","Log unit","0.75","Log unit","Nc1ccc(cc1N(=O)=O)OC","7","","{nr2=[7, 9]}","c(cc(c1)OC)c(N)c1N(=O)=O","nr2","25.0","?C","true","-","QFMJFXFXQAFGBO-UHFFFAOYSA"
"COC1=C(C=C(N)C=C1)N(=O)=O","-","R945400","M111060","-","-","4-Methoxy-3-nitroaniline","-","Koerner","charochkina","A5793","-","-","-","3.36","Log unit","3.36","Log unit","N(=O)(=O)c1c(ccc(c1)N)OC","6","","{nr2=[6, 11]}","c(cc(OC)c1N(=O)=O)c(c1)N","nr2","25.0","?C","true","-","RUFOHZDEBFYQSV-UHFFFAOYSA"
"COC1=CC(N)=C(C=C1)N(=O)=O","-","R945401","M33770","-","-","5-methoxy-2-nitroaniline","-","Koerner","charochkina","A5793","-","-","-","-0.72","Log unit","-0.72","Log unit","Nc1c(ccc(c1)OC)N(=O)=O","4","","{nr2=[4, 5]}","c(cc(c1N)N(=O)=O)c(c1)OC","nr2","25.0","?C","true","-","QEHVRGACCVLLNN-UHFFFAOYSA"
"CNC1=CC=CC=C1","-","R945402","M107","-","-","N-Methylaniline","-","Koerner","charochkina","A5793","-","-","-","4.844","Log unit","4.844","Log unit","N(c1ccccc1)C","4","","{nr2=[4]}","c(ccc1NC)cc1","nr2","25.0","?C","","-","AFBPFSWMIHJQDM-UHFFFAOYSA"
"CC1=CC=CC=C1N","-","R945403","M9899","-","-","2-methylaniline","-","Koerner","charochkina","A5793","-","-","-","4.445","Log unit","4.445","Log unit","Nc1ccccc1C","7","","{nr2=[7]}","c(ccc1C)cc1N","nr2","25.0","?C","","-","RNVCVTLRINQCPJ-UHFFFAOYSA"
"CC1=CC=CC(N)=C1","-","R945404","M5064","-","-","3-methyl-aniline","-","Koerner","charochkina","A5793","-","-","-","4.695","Log unit","4.695","Log unit","Nc1cccc(c1)C","4","","{nr2=[4]}","c(cc(c1)N)cc1C","nr2","25.0","?C","","-","JJYPMNFTHPTTDI-UHFFFAOYSA"
"CC1=CC=C(N)C=C1","-","R945405","M10196","-","-","4-methyl-aniline","-","Koerner","charochkina","A5793","-","-","-","5.09","Log unit","5.09","Log unit","Nc1ccc(cc1)C","7","","{nr2=[7]}","c(cc(c1)C)c(c1)N","nr2","25.0","?C","","-","RZXMPPFPUUCRFN-UHFFFAOYSA"
"CC1=CC(=C(N)C(=C1)N(=O)=O)N(=O)=O","-","R945406","M31212","-","-","4-Methyl-2,6-dinitroaniline","-","Koerner","charochkina","A5793","-","-","-","-4.505","Log unit","-4.505","Log unit","N(=O)(=O)c1cc(cc(c1N)N(=O)=O)C","4","","{nr2=[4, 10, 11]}","c(c(cc1N(=O)=O)C)c(c1N)N(=O)=O","nr2","25.0","?C","true","-","MOOOPNRPJGZXPE-UHFFFAOYSA"
"CC1=C(C=CC(N)=C1)N(=O)=O","-","R945407","M22405","-","-","3-methyl-4-nitro-aniline","-","Koerner","charochkina","A5793","-","-","-","1.57","Log unit","1.57","Log unit","N(=O)(=O)c1ccc(cc1C)N","5","","{nr2=[5, 10]}","c(cc(c1C)N(=O)=O)c(c1)N","nr2","25.0","?C","true","-","XPAYEWBTLKOEDA-UHFFFAOYSA"
"CC1=C(C=C(N)C=C1)N(=O)=O","-","R945408","M19007","-","-","4-methyl-3-nitro-aniline","-","Koerner","charochkina","A5793","-","-","-","2.995","Log unit","2.995","Log unit","N(=O)(=O)c1c(ccc(c1)N)C","5","","{nr2=[5, 10]}","c(cc(C)c1N(=O)=O)c(c1)N","nr2","25.0","?C","true","-","GDIIPKWHAQGCJF-UHFFFAOYSA"
"CC1=C(N)C=CC(=C1)N(=O)=O","-","R945409","M13231","-","-","2-methyl-4-nitroaniline","-","Koerner","charochkina","A5793","-","-","-","1.04","Log unit","1.04","Log unit","N(=O)(=O)c1ccc(c(c1)C)N","4","","{nr2=[4, 10]}","c(cc(c1)N(=O)=O)c(c1C)N","nr2","25.0","?C","true","-","XTTIQGSLJBWVIV-UHFFFAOYSA"
"CC1=C(N)C=C(C=C1)N(=O)=O","-","R945410","M18289","-","-","2-Methyl-5-nitroaniline","-","Koerner","charochkina","A5793","-","-","-","2.32","Log unit","2.32","Log unit","N(=O)(=O)c1ccc(c(c1)N)C","4","","{nr2=[4, 9]}","c(cc(c1)N(=O)=O)c(c1N)C","nr2","25.0","?C","true","-","DSBIJCMXAIKKKI-UHFFFAOYSA"
"CC1=CC(=CC(N)=C1)N(=O)=O","-","R945411","M1107103","-","-","3-methyl-5-nitroaniline","-","Koerner","charochkina","A5793","-","-","-","2.38","Log unit","2.38","Log unit","N(=O)(=O)c1cc(cc(c1)C)N","4","","{nr2=[4, 7]}","c(c(cc1N(=O)=O)N)c(c1)C","nr2","25.0","?C","true","-","DZIJEXQVMORGQX-UHFFFAOYSA"
"CC1=CC(=C(N)C=C1)N(=O)=O","-","R945412","M2070","-","-","4-methyl-2-nitroaniline","-","Koerner","charochkina","A5793","-","-","-","0.3965","Log unit","0.3965","Log unit","Nc1ccc(cc1N(=O)=O)C","3","","{nr2=[3, 5]}","c(cc(N)c1N(=O)=O)c(c1)C","nr2","25.0","?C","true","-","DLURHXYXQYMPLT-UHFFFAOYSA"
"CC1=CC(N)=C(C=C1)N(=O)=O","-","R945413","M66997","-","-","5-Methyl-2-nitroaniline","-","Koerner","charochkina","A5793","-","-","-","-0.09","Log unit","-0.09","Log unit","Nc1c(ccc(c1)C)N(=O)=O","4","","{nr2=[4, 5]}","c(cc(c1N)N(=O)=O)c(c1)C","nr2","25.0","?C","true","-","IGDYNWKWXUCIJB-UHFFFAOYSA"
"CC1=C(N)C(=CC=C1)N(=O)=O","-","R945414","M21833","-","-","6-Methyl-2-nitroaniline","-","Koerner","charochkina","A5793","-","-","-","-0.71","Log unit","-0.71","Log unit","Nc1c(cccc1N(=O)=O)C","4","","{nr2=[4, 8]}","c(cc(c1N)C)cc1N(=O)=O","nr2","25.0","?C","true","-","FCMRHMPITHLLLA-UHFFFAOYSA"
"CCCN(C)C1=CC=CC=C1","-","R945415","M1107104","-","-","N-methyl-N-n-propylaniline","-","Koerner","charochkina","A5793","-","-","-","5.67","Log unit","5.67","Log unit","N(c1ccccc1)(C)CCC","4","","{nr2=[4]}","c(ccc1N(C)CCC)cc1","nr2","25.0","?C","","-","JDKNALCOFBJYBR-UHFFFAOYSA"
"CS(=O)(=O)C1=CC=CC=C1N","-","R945416","M1107105","-","-","2-methylsulphonylaniline","-","Koerner","charochkina","A5793","-","-","-","0.33","Log unit","0.33","Log unit","Nc1c(S(=O)(=O)C)cccc1","10","","{nr2=[10]}","S(=O)(=O)(C)-c(ccc1)c(c1)N","nr2","25.0","?C","","-","AUSRSVRJOXYXMI-UHFFFAOYSA"
"CS(=O)(=O)C1=CC=CC(N)=C1","-","R945417","M124457","-","-","3-methylsulphonylaniline","-","Koerner","charochkina","A5793","-","-","-","2.5705","Log unit","2.5705","Log unit","Nc1cc(S(=O)(=O)C)ccc1","10","","{nr2=[10]}","S(=O)(=O)(C)-c(ccc1)cc1N","nr2","25.0","?C","","-","MBNPJRQKQLLRIS-UHFFFAOYSA"
"CS(=O)(=O)C1=CC=C(N)C=C1","-","R945418","M30395","-","-","4-methylsuphonylaniline","-","Koerner","charochkina","A5793","-","-","-","1.357","Log unit","1.357","Log unit","Nc1ccc(S(=O)(=O)C)cc1","8","","{nr2=[8]}","S(=O)(=O)(C)-c(ccc1N)cc1","nr2","25.0","?C","","-","XJEVFFNOMKXBLU-UHFFFAOYSA"
"CSC1=CC=CC=C1N","-","R945419","M12142","-","-","2-methylthioaniline","-","Koerner","charochkina","A5793","-","-","-","3.45","Log unit","3.45","Log unit","Nc1c(SC)cccc1","8","","{nr2=[8]}","S(C)-c(ccc1)c(c1)N","nr2","25.0","?C","","-","WBRPQQSADOCKCH-UHFFFAOYSA"
"CSC1=CC=CC(N)=C1","-","R945420","M5460","-","-","3-methylthioaniline","-","Koerner","charochkina","A5793","-","-","-","4.0","Log unit","4.0","Log unit","Nc1cc(SC)ccc1","8","","{nr2=[8]}","S(C)-c(ccc1)cc1N","nr2","25.0","?C","","-","KCHLDNLIJVSRPK-UHFFFAOYSA"
"CSC1=CC=C(N)C=C1","-","R945421","M18516","-","-","4-METHYLTHIOANILINE","-","Koerner","charochkina","A5793","-","-","-","4.35","Log unit","4.35","Log unit","Nc1ccc(SC)cc1","6","","{nr2=[6]}","S(C)-c(ccc1N)cc1","nr2","25.0","?C","","-","YKFROQCFVXOUPW-UHFFFAOYSA"
"CSC1=CC(=C(N)C(=C1)N(=O)=O)N(=O)=O","-","R945422","M1107106","-","-","4-methylthio-2,6-dinitroaniline","-","Koerner","charochkina","A5793","-","-","-","-4.46","Log unit","-4.46","Log unit","Nc1c(cc(SC)cc1N(=O)=O)N(=O)=O","6","","{nr2=[6, 7, 12]}","S(C)-c(cc(c1N)N(=O)=O)cc1N(=O)=O","nr2","25.0","?C","true","-","YLTUTINVLQRNJC-UHFFFAOYSA"
"CSC1=CC=C(N)C(=C1)N(=O)=O","-","R945423","M1107107","-","-","4-methylthio-2-nitroaniline","-","Koerner","charochkina","A5793","-","-","-","-0.28","Log unit","-0.28","Log unit","Nc1ccc(SC)cc1N(=O)=O","6","","{nr2=[6, 9]}","S(C)-c(ccc1N)cc1N(=O)=O","nr2","25.0","?C","true","-","LWFOZCFJVOGQAM-UHFFFAOYSA"
"CSC1=CC=C(N)C=C1N(=O)=O","-","R945424","M1107108","-","-","4-methylthio-3-nitroaniline","-","Koerner","charochkina","A5793","-","-","-","2.47","Log unit","2.47","Log unit","Nc1ccc(SC)c(c1)N(=O)=O","6","","{nr2=[6, 9]}","S(C)-c(ccc1N)c(c1)N(=O)=O","nr2","25.0","?C","true","-","MDMPPCKRDMAIFX-UHFFFAOYSA"
"CC1=C(C=C(C(N)=C1N(=O)=O)N(=O)=O)N(=O)=O","-","R945425","M123978","-","-","3-methyl-2,4,6-trinitroaniline","-","Koerner","charochkina","A5793","-","-","-","-8.08","Log unit","-8.08","Log unit","Nc1c(cc(c(c1N(=O)=O)C)N(=O)=O)N(=O)=O","3","","{nr2=[3, 5, 8, 14]}","c(c(c(N)c1N(=O)=O)N(=O)=O)c(c1C)N(=O)=O","nr2","25.0","?C","true","-","RSUBARQODWIKOQ-UHFFFAOYSA"
"CNC1=CC=C(Cl)C=C1N(=O)=O","-","R945225","M1107061","-","-","4-chloro-N-methyl-2-nitroaniline","-","Koerner","charochkina","A5793","-","-","-","-1.205","Log unit","-1.205","Log unit","N(c1ccc(Cl)cc1N(=O)=O)C","5","","{nr2=[5, 9]}","Cl-c(ccc1NC)cc1N(=O)=O","nr2","25.0","?C","true","-","LUTBHMSHJATKIS-UHFFFAOYSA"
"NC1=CC=C(Cl)C=C1N(=O)=O","-","R945226","M17920","-","-","4-chloro-2-nitro-aniline","-","Koerner","charochkina","A5793","-","-","-","-1.06","Log unit","-1.06","Log unit","Nc1ccc(Cl)cc1N(=O)=O","5","","{nr2=[5, 8]}","Cl-c(ccc1N)cc1N(=O)=O","nr2","25.0","?C","true","-","PBGKNXWGYQPUJK-UHFFFAOYSA"
"NC1=CC=C(Cl)C(=C1)N(=O)=O","-","R945227","M23037","-","-","4-chloro-3-nitro-aniline","-","Koerner","charochkina","A5793","-","-","-","1.9","Log unit","1.9","Log unit","Nc1ccc(Cl)c(c1)N(=O)=O","5","","{nr2=[5, 8]}","Cl-c(ccc1N)c(c1)N(=O)=O","nr2","25.0","?C","true","-","FOHHWGVAOVDVLP-UHFFFAOYSA"
"NC1=CC(Cl)=CC=C1N(=O)=O","-","R945228","M14023","-","-","5-chloro-2-nitro-aniline","-","Koerner","charochkina","A5793","-","-","-","-1.52","Log unit","-1.52","Log unit","N(=O)(=O)c1ccc(Cl)cc1N","5","","{nr2=[5, 10]}","Cl-c(ccc1N(=O)=O)cc1N","nr2","25.0","?C","true","-","ZCWXYZBQDNFULS-UHFFFAOYSA"