"SMILES","CASRN","RECORDID","MOLECULEID","EXTERNALID","N","NAME","NAME","INTRODUCER","MODIFIER","ARTICLEID","PUBMEDID","PAGE","TABLE","pKa (smiles as ob. cond.) {measured}","UNIT {pKa (smiles as ob. cond.)}","pKa (smiles as ob. cond.) {measured, converted}","UNIT {pKa (smiles as ob. cond.)}","Ionizable centre (smiles)","IC group detected","AtomNR of IC","groupsAndICs","IC smiles given","IC group given","Temperature","UNIT {Temperature}","MultiGroupDetection","COMMENTS","INCHI_KEY"
"CN(C)CCC(C(=O)CC1=CC=CC=C1)C1=CC=CC=C1","-","R944970","M1106995","-","-","1-benzylcarbonyl-3-dimethylamino-1-phenylpropane","-","Koerner","charochkina","A5793","-","-","-","8.99","Log unit","8.99","Log unit","N(CCC(C(=O)Cc1ccccc1)c1ccccc1)(C)C","16","","{nr2=[16]}","c(ccc1CC(=O)C(c(ccc2)cc2)CCN(C)C)cc1","nr2","25.0","?C","","-","OLGPUINRHZRSSK-UHFFFAOYSA"
"CCCN(CCCl)CCCl","-","R944971","M22668","-","-","1-bis(2-chloroethyl)aminopropane","-","Koerner","charochkina","A5793","-","-","-","6.84","Log unit","6.84","Log unit","N(CCCl)(CCCl)CCC","3","","{nr2=[3]}","ClCCN(CCCl)CCC","nr2","25.0","?C","","-","XPOTXXGDCPYFGR-UHFFFAOYSA"
"CC(C)N(CCCl)CCCl","-","R944972","M22606","-","-","2-bis(2-chloroethyl)aminopropane","-","Koerner","charochkina","A5793","-","-","-","6.95","Log unit","6.95","Log unit","N(CCCl)(CCCl)C(C)C","3","","{nr2=[3]}","ClCCN(CCCl)C(C)C","nr2","25.0","?C","","-","WAEDMQMDOHQPFL-UHFFFAOYSA"
"CCN(CC)CCCN(CC)CC","-","R944973","M742086","-","-","1,3-bisdiethylaminopropane","-","Koerner","charochkina","A5793","-","-","-","9.9","Log unit","9.9","Log unit","N(CC)(CC)CCCN(CC)CC","0","","{nr2=[0, 8]}","N(CC)(CC)CCCN(CC)CC","nr2","25.0","?C","true","-","RCZLVPFECJNLMZ-UHFFFAOYSA"
"CCN(CC)CCC[NH+](CC)CC","-","R944974","M742086","-","-","1,3-bisdiethylaminopropane","-","Koerner","charochkina","A5793","-","-","-","8.5","Log unit","8.5","Log unit","[NH+](CC)(CC)CCCN(CC)CC","0","","{nr2=[0, 8]}","[N+1](CC)(CC)CCCN(CC)CC","nr2","25.0","?C","true","-","RCZLVPFECJNLMZ-UHFFFAOYSA"
"CCN(CC)CC(O)CN(CC)CC","-","R944975","M1106996","-","-","1,3-bisdiethylamino-2-hydroxypropane","-","Koerner","charochkina","A5793","-","-","-","9.5","Log unit","9.5","Log unit","N(CC(O)CN(CC)CC)(CC)CC","3","","{nr2=[3, 9], oh=[0]}","OC(CN(CC)CC)CN(CC)CC","nr2","25.0","?C","true","-","CDBMNYGKGNXEIG-UHFFFAOYSA"
"CCN(CC)CC(O)C[NH+](CC)CC","-","R944976","M1106996","-","-","1,3-bisdiethylamino-2-hydroxypropane","-","Koerner","charochkina","A5793","-","-","-","7.44","Log unit","7.44","Log unit","[NH+](CC(O)CN(CC)CC)(CC)CC","3","","{nr2=[3, 9], oh=[0]}","OC(C[N+1](CC)CC)CN(CC)CC","nr2","25.0","?C","true","-","CDBMNYGKGNXEIG-UHFFFAOYSA"
"CC(CN(C)C)N(C)C","-","R944977","M123045","-","-","1,2-bisdimethylaminopropane","-","Koerner","charochkina","A5793","-","-","-","9.19","Log unit","9.19","Log unit","N(C)(C)CC(N(C)C)C","0","","{nr2=[0, 5]}","N(C)(C)CC(N(C)C)C","nr2","25.0","?C","true","-","JUXXCHAGQCBNTI-UHFFFAOYSA"
"CN(C)CCCN(C)C","-","R944978","M18744","-","-","1,3-bisdimethylaminopropane","-","Koerner","charochkina","A5793","-","-","-","9.5","Log unit","9.5","Log unit","N(C)(C)CCCN(C)C","0","","{nr2=[0, 6]}","N(C)(C)CCCN(C)C","nr2","25.0","?C","true","-","DMQSHEKGGUOYJS-UHFFFAOYSA"
"CN(C)CCC[NH+](C)C","-","R944979","M18744","-","-","1,3-bisdimethylaminopropane","-","Koerner","charochkina","A5793","-","-","-","8.0","Log unit","8.0","Log unit","[NH+](C)(C)CCCN(C)C","0","","{nr2=[0, 6]}","[N+1](C)(C)CCCN(C)C","nr2","25.0","?C","true","-","DMQSHEKGGUOYJS-UHFFFAOYSA"
"CCCN(CC(C)O)CC(C)O","-","R944980","M1106997","-","-","1-(bis-2-hydroxypropyl)aminopropane","-","Koerner","charochkina","A5793","-","-","-","8.6","Log unit","8.6","Log unit","N(CC(O)C)(CCC)CC(O)C","4","","{nr2=[4], oh=[0, 10]}","OC(C)CN(CCC)CC(O)C","nr2","25.0","?C","","-","VSUZYIMAWHNPOP-UHFFFAOYSA"
"CC(O)CN(CCC[NH+](C)C)CC(C)O","-","R944981","M93866","-","-","1-(bis-2-hydroxypropyl)amino-3-dimethylaminopropane","-","Koerner","charochkina","A5793","-","-","-","6.8","Log unit","6.8","Log unit","N(CC(O)C)(CC(O)C)CCC[NH+](C)C","4","","{nr2=[4, 12], oh=[0, 7]}","OC(C)CN(CC(O)C)CCC[N+1](C)C","nr2","25.0","?C","true","-","FFCUXTGIVGMUKC-UHFFFAOYSA"
"CCC(C)N(CC(C)O)CC(C)O","-","R944982","M1106998","-","-","1-(bis-2-hydroxypropyl)amino-2-methylpropane","-","Koerner","charochkina","A5793","-","-","-","8.8","Log unit","8.8","Log unit","N(CC(O)C)(CC(O)C)C(C)CC","4","","{nr2=[4], oh=[0, 7]}","OC(C)CN(CC(O)C)C(C)CC","nr2","25.0","?C","","-","IGDOWDLMNXVDAY-UHFFFAOYSA"
"CC(O)CN(CC(C)O)C(C)(C)C","-","R944983","M1106999","-","-","2-(bis-2-hydroxypropyl)amino-2-methylpropane","-","Koerner","charochkina","A5793","-","-","-","9.4","Log unit","9.4","Log unit","N(CC(O)C)(CC(O)C)C(C)(C)C","4","","{nr2=[4], oh=[0, 7]}","OC(C)CN(CC(O)C)C(C)(C)C","nr2","25.0","?C","","-","PCRSGENJQANRNB-UHFFFAOYSA"
"CCN(CC)CCC(C([O-])=O)(C1=CC=CC=C1)C1=CC=CC=C1","-","R944984","M1107000","-","-","1-carboxy-3-diethylamino-1,1-diphenylpropane","-","Koerner","charochkina","A5793","-","-","-","10.59","Log unit","10.59","Log unit","N(CCC(c1ccccc1)(c1ccccc1)C(=O)[O-])(CC)CC","16","","{nr2=[16]}","c(ccc1C(c(ccc2)cc2)(C(=O)[O-1])CCN(CC)CC)cc1","nr2","25.0","?C","","-","ICDQPJSXTLJZIC-UHFFFAOYSA"
"CCN(CC)CCCC#N","-","R944985","M75261","-","-","1-cyano-3-diethylaminopropane","-","Koerner","charochkina","A5793","-","-","-","9.29","Log unit","9.29","Log unit","N(CCCC#N)(CC)CC","5","","{nr2=[5]}","N#CCCCN(CC)CC","nr2","25.0","?C","","-","NUVVGLXJJPTXRJ-UHFFFAOYSA"
"CCN(CC)CCC(C#N)(C1=CC=CC=C1)C1=CC=CC=C1","-","R944986","M1107001","-","-","1-cyano-3-diethylamino-1,1-diphenylpropane","-","Koerner","charochkina","A5793","-","-","-","9.08","Log unit","9.08","Log unit","N(CCC(c1ccccc1)(c1ccccc1)C#N)(CC)CC","15","","{nr2=[15]}","c(ccc1C(c(ccc2)cc2)(C#N)CCN(CC)CC)cc1","nr2","25.0","?C","","-","HONARVMECIZMMD-UHFFFAOYSA"
"CN(C)CCC(C#N)(C1=CC=CC=C1)C1=CC=CC=C1","-","R944987","M476539","-","-","1-cyano-3-dimethylamino-1,1-diphenylpropane","-","Koerner","charochkina","A5793","-","-","-","8.26","Log unit","8.26","Log unit","N(CCC(c1ccccc1)(c1ccccc1)C#N)(C)C","15","","{nr2=[15]}","c(ccc1C(c(ccc2)cc2)(C#N)CCN(C)C)cc1","nr2","25.0","?C","","-","SZOCKYDZSPRJPT-UHFFFAOYSA"
"CC(CN(C)C)C(C#N)(C1=CC=CC=C1)C1=CC=CC=C1","-","R944988","M42020","-","-","1-cyano-3-dimethylamino-2-methyl-1,1-diphenylpropane","-","Koerner","charochkina","A5793","-","-","-","8.005","Log unit","8.005","Log unit","N(CC(C(c1ccccc1)(c1ccccc1)C#N)C)(C)C","16","","{nr2=[16]}","c(ccc1C(c(ccc2)cc2)(C#N)C(C)CN(C)C)cc1","nr2","25.0","?C","","-","WDEAKMXEZRUYOK-UHFFFAOYSA"
"CC(CC(C#N)(C1=CC=CC=C1)C1=CC=CC=C1)N(C)C","-","R944989","M65582","-","-","1-cyano-3-dimethylamino-3-methyl-1,1-diphenylpropane","-","Koerner","charochkina","A5793","-","-","-","8.68","Log unit","8.68","Log unit","N(C(CC(c1ccccc1)(c1ccccc1)C#N)C)(C)C","15","","{nr2=[15]}","c(ccc1C(-c(ccc2)cc2)(C#N)CC(N(C)C)C)cc1","nr2","25.0","?C","","-","GJJQIGFCGLPOQK-UHFFFAOYSA"
"CC(N)CN","-","R944990","M333","-","-","1,2-diamino-propane","-","Koerner","charochkina","A5793","-","-","-","9.985001","Log unit","9.985001","Log unit","NCC(N)C","0","","{nr2=[0, 3]}","NCC(N)C","nr2","25.0","?C","true","-","AOHJOMMDDJHIJH-UHFFFAOYSA"
"CC(N)C[NH3+]","-","R944991","M333","-","-","1,2-diamino-propane","-","Koerner","charochkina","A5793","-","-","-","7.1","Log unit","7.1","Log unit","NC(C[NH3+])C","3","","{nr2=[3]}","[N+1]CC(N)C","nr2","25.0","?C","","-","AOHJOMMDDJHIJH-UHFFFAOYSA"
"NCCCN","-","R944992","M12887","-","-","1,3-diamino-propane","-","Koerner","charochkina","A5793","-","-","-","10.17","Log unit","10.17","Log unit","NCCCN","0","","{nr2=[0, 4]}","NCCCN","nr2","25.0","?C","true","-","XFNJVJPLKCPIBV-UHFFFAOYSA"
"NCCC[NH3+]","-","R944993","M12887","-","-","1,3-diamino-propane","-","Koerner","charochkina","A5793","-","-","-","8.6","Log unit","8.6","Log unit","NCCC[NH3+]","0","","{nr2=[0]}","NCCC[N+1]","nr2","25.0","?C","","-","XFNJVJPLKCPIBV-UHFFFAOYSA"
"NCC(CN)CN","-","R944994","M124409","-","-","1,3-DIAMINO-2-AMINOMETHYLPROPANE","-","Koerner","charochkina","A5793","-","-","-","10.03","Log unit","10.03","Log unit","NCC(CN)CN","0","","{nr2=[0, 4, 6]}","NCC(CN)CN","nr2","25.0","?C","true","-","XXZJETFEIRYFCD-UHFFFAOYSA"
"NCC(CN)C[NH3+]","-","R944995","M124409","-","-","1,3-DIAMINO-2-AMINOMETHYLPROPANE","-","Koerner","charochkina","A5793","-","-","-","8.86","Log unit","8.86","Log unit","NCC(C[NH3+])CN","4","","{nr2=[4, 6]}","[N+1]CC(CN)CN","nr2","25.0","?C","true","-","XXZJETFEIRYFCD-UHFFFAOYSA"
"NCC(C[NH3+])C[NH3+]","-","R944996","M124409","-","-","1,3-DIAMINO-2-AMINOMETHYLPROPANE","-","Koerner","charochkina","A5793","-","-","-","7.36","Log unit","7.36","Log unit","NCC(C[NH3+])C[NH3+]","6","","{nr2=[6]}","[N+1]CC(C[N+1])CN","nr2","25.0","?C","","-","XXZJETFEIRYFCD-UHFFFAOYSA"
"CC(C)(CN)CN","-","R944997","M78465","-","-","1,3-diamino-2,2-dimethylpropane","-","Koerner","charochkina","A5793","-","-","-","9.9","Log unit","9.9","Log unit","NCC(C)(C)CN","0","","{nr2=[0, 6]}","NCC(C)(C)CN","nr2","25.0","?C","true","-","DDHUNHGZUHZNKB-UHFFFAOYSA"
"CC(C)(CN)C[NH3+]","-","R944998","M78465","-","-","1,3-diamino-2,2-dimethylpropane","-","Koerner","charochkina","A5793","-","-","-","8.5","Log unit","8.5","Log unit","NCC(C[NH3+])(C)C","6","","{nr2=[6]}","[N+1]CC(C)(C)CN","nr2","25.0","?C","","-","DDHUNHGZUHZNKB-UHFFFAOYSA"
"NCC(O)CN","-","R944999","M11464","-","-","1,3-Diamino-2-hydroxypropane","-","Koerner","charochkina","A5793","-","-","-","9.3","Log unit","9.3","Log unit","NCC(O)CN","3","","{nr2=[3, 5], oh=[0]}","OC(CN)CN","nr2","25.0","?C","true","-","UYBWIEGTWASWSR-UHFFFAOYSA"
"NCC(O)C[NH3+]","-","R945000","M11464","-","-","1,3-Diamino-2-hydroxypropane","-","Koerner","charochkina","A5793","-","-","-","8.0","Log unit","8.0","Log unit","NCC(O)C[NH3+]","5","","{nr2=[5], oh=[0]}","OC(C[N+1])CN","nr2","25.0","?C","","-","UYBWIEGTWASWSR-UHFFFAOYSA"
"CC(C)([NH3+])CN","-","R945001","M23663","-","-","1,2-Diamino-2-methylpropane","-","Koerner","charochkina","A5793","-","-","-","6.79","Log unit","6.79","Log unit","NCC([NH3+])(C)C","0","","{nr2=[0]}","NCC([N+1])(C)C","nr2","25.0","?C","","-","OPCJOXGBLDJWRM-UHFFFAOYSA"
"CC[NH+](CC)CCC(C(=N)NC1=CC=CC=C1)C1=CC=CC=C1","-","R945002","M1106655","-","-","1-diethylamino-3-phenyl-3-phenylamidinopropane","-","Koerner","charochkina","A5793","-","-","-","7.18","Log unit","7.18","Log unit","C(=N)(Nc1ccccc1)C(c1ccccc1)CC[NH+](CC)CC","5","","{neth=[5], nr2=[4, 16]}","c(ccc1NC(=N)C(-c(ccc2)cc2)CC[N+1](CC)CC)cc1","neth","25.0","?C","","-","QWQNEZWWSDRHIZ-UHFFFAOYSA"
"CC(O)CN(CC(C)O)CC(C)O","-","R945003","M19113","-","-","1-di(2-hydroxypropyl)amino-2-hydroxypropane","-","Koerner","charochkina","A5793","-","-","-","7.755","Log unit","7.755","Log unit","N(CC(O)C)(CC(O)C)CC(O)C","4","","{nr2=[4], oh=[0, 7, 11]}","OC(C)CN(CC(O)C)CC(O)C","nr2","25.0","?C","","-","SLINHMUFWFWBMU-UHFFFAOYSA"
"CC(C)CN(CC(C)C)CC(C)C","-","R945004","M24578","-","-","1-di-isobutylamino-2-methylpropane","-","Koerner","charochkina","A5793","-","-","-","10.32","Log unit","10.32","Log unit","N(CC(C)C)(CC(C)C)CC(C)C","0","","{nr2=[0]}","N(CC(C)C)(CC(C)C)CC(C)C","nr2","25.0","?C","","-","IIFFFBSAXDNJHX-UHFFFAOYSA"
"CCCN(C)C","-","R945005","M24022","-","-","1-dimethylaminopropane","-","Koerner","charochkina","A5793","-","-","-","9.665","Log unit","9.665","Log unit","N(C)(C)CCC","0","","{nr2=[0]}","N(C)(C)CCC","nr2","25.0","?C","","-","ZUHZZVMEUAUWHY-UHFFFAOYSA"
"CC(C)N(C)C","-","R945006","M24263","-","-","2-dimethylaminopropane","-","Koerner","charochkina","A5793","-","-","-","10.47","Log unit","10.47","Log unit","N(C)(C)C(C)C","0","","{nr2=[0]}","N(C)(C)C(C)C","nr2","25.0","?C","","-","VMOWKUTXPNPTEN-UHFFFAOYSA"
"CN(C)CCCC(=O)C(CCN(C)C)C1=CC=CC=C1","-","R945007","M1107002","-","-","1-dimethylamino-3-(3-dimethylamino-1-phenyl)propylcarbonylpropane","-","Koerner","charochkina","A5793","-","-","-","8.9","Log unit","8.9","Log unit","N(CCCC(=O)C(c1ccccc1)CCN(C)C)(C)C","10","","{nr2=[10, 15]}","c(ccc1C(C(=O)CCCN(C)C)CCN(C)C)cc1","nr2","25.0","?C","true","-","AOKSNWCMVFPVSX-UHFFFAOYSA"
"CN(C)CCCN(C)CCCN(C)C","-","R945008","M73483","-","-","1-dimethylamino-3-(3-dimethylamino)propylmethylaminopropane","-","Koerner","charochkina","A5793","-","-","-","9.7","Log unit","9.7","Log unit","N(C)(C)CCCN(C)CCCN(C)C","0","","{nr2=[0, 6, 11]}","N(C)(C)CCCN(C)CCCN(C)C","nr2","25.0","?C","true","-","SKCNNQDRNPQEFU-UHFFFAOYSA"
"CN(CCC[NH+](C)C)CCC[NH+](C)C","-","R945009","M73483","-","-","1-dimethylamino-3-(3-dimethylamino)propylmethylaminopropane","-","Koerner","charochkina","A5793","-","-","-","6.4","Log unit","6.4","Log unit","[NH+](C)(C)CCCN(C)CCC[NH+](C)C","0","","{nr2=[0, 6, 11]}","[N+1](C)(C)CCCN(C)CCC[N+1](C)C","nr2","25.0","?C","true","-","SKCNNQDRNPQEFU-UHFFFAOYSA"
"CN(C)CCC(C1=CC=CC=C1)C1=CC=CC=C1","-","R945010","M1014407","-","-","1-dimethylamino-3,3-diphenylpropane","-","Koerner","charochkina","A5793","-","-","-","9.35","Log unit","9.35","Log unit","N(CCC(c1ccccc1)c1ccccc1)(C)C","13","","{nr2=[13]}","c(ccc1C(c(ccc2)cc2)CCN(C)C)cc1","nr2","25.0","?C","","-","YHDCGYWZEFIUHE-UHFFFAOYSA"
"CCOC(=O)C(CC(C)N(C)C)(C1=CC=CC=C1)C1=CC=CC=C1","-","R945011","M43301","-","-","1-dimethylamino-3-ethoxycarbonyl-1-methyl-3,3-diphenylpropane","-","Koerner","charochkina","A5793","-","-","-","10.12","Log unit","10.12","Log unit","N(C)(C)C(C)CC(c1ccccc1)(c1ccccc1)C(=O)OCC","0","","{nr2=[0]}","N(C)(C)C(C)CC(c2ccccc2)(c3ccccc3)C(=O)OCC","nr2","25.0","?C","","-","WXEKNJPJHWJONL-UHFFFAOYSA"
"CCOC(=O)C(CCN(C)C)(C1=CC=CC=C1)C1=CC=CC=C1","-","R945012","M1107003","-","-","1-dimethylamino-3-ethylcarbonyl-3,3-diphenylpropane","-","Koerner","charochkina","A5793","-","-","-","9.07","Log unit","9.07","Log unit","N(CCC(c1ccccc1)(c1ccccc1)C(=O)OCC)(C)C","18","","{nr2=[18]}","c(ccc1C(c(ccc2)cc2)(C(=O)OCC)CCN(C)C)cc1","nr2","25.0","?C","","-","IWMKHKNNDDLRCC-UHFFFAOYSA"
"CC(C)CN(C)C","-","R945013","M31781","-","-","1-dimethylamino-2-methylpropane","-","Koerner","charochkina","A5793","-","-","-","10.08","Log unit","10.08","Log unit","N(C)(C)CC(C)C","0","","{nr2=[0]}","N(C)(C)CC(C)C","nr2","25.0","?C","","-","GDHRQDYGUDOEIZ-UHFFFAOYSA"
"CN(C)C(C)(C)C","-","R945014","M742726","-","-","2-dimethylamino-2-methylpropane","-","Koerner","charochkina","A5793","-","-","-","10.69","Log unit","10.69","Log unit","N(C)(C)C(C)(C)C","0","","{nr2=[0]}","N(C)(C)C(C)(C)C","nr2","25.0","?C","","-","OXQMIXBVXHWDPX-UHFFFAOYSA"
"C[NH+](C)CCC(C(=N)NC1=CC=CC=C1)C1=CC=CC=C1","-","R945015","M1106656","-","-","1-dimethylamino-3-phenyl-3-phenylamidopropane","-","Koerner","charochkina","A5793","-","-","-","7.13","Log unit","7.13","Log unit","C(=N)(Nc1ccccc1)C(c1ccccc1)CC[NH+](C)C","5","","{neth=[5], nr2=[4, 16]}","c(ccc1NC(=N)C(c(ccc2)cc2)CC[N+1](C)C)cc1","neth","25.0","?C","","-","XVMXPKVGHMZASQ-UHFFFAOYSA"
"CCCN(CCC)CCC","-","R945016","M13501","-","-","1-dipropylaminopropane","-","Koerner","charochkina","A5793","-","-","-","10.455","Log unit","10.455","Log unit","N(CCC)(CCC)CCC","0","","{nr2=[0]}","N(CCC)(CCC)CCC","nr2","25.0","?C","","-","YFTHZRPMJXBUME-UHFFFAOYSA"
"CC(O)CNCCO","-","R945017","M77616","-","-","2-hydroxy-1-hydroxyethylaminepropane","-","Koerner","charochkina","A5793","-","-","-","8.81","Log unit","8.81","Log unit","N(CCO)CC(O)C","3","","{nr2=[3], oh=[0, 6]}","OCCNCC(O)C","nr2","25.0","?C","","-","GBAXGHVGQJHFQL-UHFFFAOYSA"
"CC(C)N(CCO)C(C)C","-","R945018","M14521","-","-","2-N-(2-hydroxyethyl)-N-isopropylaminopropane","-","Koerner","charochkina","A5793","-","-","-","10.08","Log unit","10.08","Log unit","N(CCO)(C(C)C)C(C)C","3","","{nr2=[3], oh=[0]}","OCCN(C(C)C)C(C)C","nr2","25.0","?C","","-","ZYWUVGFIXPNBDL-UHFFFAOYSA"
"CC(O)CN(C)CCO","-","R945019","M1107004","-","-","2-hydroxy-1-(2-hydroxyethylmethylamino)propane","-","Koerner","charochkina","A5793","-","-","-","8.7","Log unit","8.7","Log unit","N(CCO)(C)CC(O)C","3","","{nr2=[3], oh=[0, 7]}","OCCN(C)CC(O)C","nr2","25.0","?C","","-","CRJALRGNJLMCAQ-UHFFFAOYSA"
"CC(O)CNC(C)(C)C","-","R945020","M1107005","-","-","2-(2-hydroxypropylamino)-2-methylpropane","-","Koerner","charochkina","A5793","-","-","-","10.0","Log unit","10.0","Log unit","N(CC(O)C)C(C)(C)C","4","","{nr2=[4], oh=[0]}","OC(C)CNC(C)(C)C","nr2","25.0","?C","","-","AYNBYSNISOAOHW-UHFFFAOYSA"
"CC(C)CNCC(C)C","-","R945021","M18745","-","-","1-isobutylamino-2-methylpropane","-","Koerner","charochkina","A5793","-","-","-","10.705","Log unit","10.705","Log unit","N(CC(C)C)CC(C)C","0","","{nr2=[0]}","N(CC(C)C)CC(C)C","nr2","25.0","?C","","-","NJBCRXCAPCODGX-UHFFFAOYSA"
"CC(C)NC(C)C","-","R945022","M18646","-","-","2-isopropylaminopropane","-","Koerner","charochkina","A5793","-","-","-","11.045","Log unit","11.045","Log unit","N(C(C)C)C(C)C","0","","{nr2=[0]}","N(C(C)C)C(C)C","nr2","25.0","?C","","-","UAOMVDZJSHZZME-UHFFFAOYSA"
"CCCNCCC","-","R945023","M12204","-","-","1-propylaminopropane","-","Koerner","charochkina","A5793","-","-","-","10.895","Log unit","10.895","Log unit","N(CCC)CCC","0","","{nr2=[0]}","N(CCC)CCC","nr2","25.0","?C","","-","WEHWNAOGRSTTBQ-UHFFFAOYSA"
"NC(C[NH3+])C[NH3+]","-","R945024","M1107006","-","-","1,2,3-triaminopropane","-","Koerner","charochkina","A5793","-","-","-","3.99","Log unit","3.99","Log unit","NC(C[NH3+])C[NH3+]","3","","{nr2=[3]}","[N+1]CC(N)C[N+1]","nr2","25.0","?C","","-","PZZICILSCNDOKK-UHFFFAOYSA"
"N#CCNCC#N","-","R944825","M22914","-","-","cyanocyanomethylaminomethane","-","Koerner","charochkina","A5793","-","-","-","0.2","Log unit","0.2","Log unit","N(CC#N)CC#N","3","","{nr2=[3]}","N#CCNCC#N","nr2","25.0","?C","","-","BSRDNMMLQYNQQD-UHFFFAOYSA"
"CN(C)CC#N","-","R944826","M24023","-","-","N-cyanomethylaminomethane","-","Koerner","charochkina","A5793","-","-","-","4.15","Log unit","4.15","Log unit","N(CC#N)(C)C","3","","{nr2=[3]}","N#CCN(C)C","nr2","25.0","?C","","-","PLXBWEPPAAQASG-UHFFFAOYSA"
"CN(C)C","-","R944827","M3145","-","-","dimethylaminomethane","-","Koerner","charochkina","A5793","-","-","-","9.692","Log unit","9.692","Log unit","N(C)(C)C","1","","{nr2=[1]}","CN(C)C","nr2","25.0","?C","","-","GETQZCLCWQTVFV-UHFFFAOYSA"
"CNO","-","R944828","M22111","-","-","N-hydroxyaminomethane","-","Koerner","charochkina","A5793","-","-","-","5.96","Log unit","5.96","Log unit","N(O)C","1","","{nr2=[1], oh=[0]}","ONC","nr2","25.0","?C","","-","CPQCSJYYDADLCZ-UHFFFAOYSA"
"CN(C)O","-","R944829","M30582","-","-","N-hydroxy-N-methylaminomethane","-","Koerner","charochkina","A5793","-","-","-","5.2","Log unit","5.2","Log unit","N(O)(C)C","1","","{nr2=[1], oh=[0]}","ON(C)C","nr2","25.0","?C","","-","VMESOKCXSYNAKD-UHFFFAOYSA"
"CNOC","-","R944830","M24590","-","-","N-methoxyaminomethane","-","Koerner","charochkina","A5793","-","-","-","4.75","Log unit","4.75","Log unit","N(OC)C","1","","{nr2=[1]}","O(NC)C","nr2","25.0","?C","","-","KRKPYFLIYNGWTE-UHFFFAOYSA"
"CON(C)C","-","R944831","M1106963","-","-","N-methoxyamino-N-methylmethane","-","Koerner","charochkina","A5793","-","-","-","3.65","Log unit","3.65","Log unit","N(OC)(C)C","2","","{nr2=[2]}","O(C)N(C)C","nr2","25.0","?C","","-","QVDVENIYNXDSOK-UHFFFAOYSA"
"CCN(CC)CCC(C)=O","-","R944832","M28069","-","-","1-acetyl-2-diethylaminoethane","-","Koerner","charochkina","A5793","-","-","-","9.04","Log unit","9.04","Log unit","N(CCC(=O)C)(CC)CC","5","","{nr2=[5]}","O=C(C)CCN(CC)CC","nr2","25.0","?C","","-","XLEOCTUCGZANAC-UHFFFAOYSA"
"CN(C)CCC(C)=O","-","R944833","M1106964","-","-","1-acetyl-2-dimethylaminoethane","-","Koerner","charochkina","A5793","-","-","-","8.37","Log unit","8.37","Log unit","N(CCC(=O)C)(C)C","5","","{nr2=[5]}","O=C(C)CCN(C)C","nr2","25.0","?C","","-","WQVAMFRPCWXWSS-UHFFFAOYSA"
"CCN","-","R944834","M9452","-","-","amino-ethane","-","Koerner","charochkina","A5793","-","-","-","10.7985","Log unit","10.7985","Log unit","NCC","0","","{nr2=[0]}","NCC","nr2","25.0","?C","","-","QUSNBJAOOMFDIB-UHFFFAOYSA"
"NCCOCCN","-","R944835","M71785","-","-","1-amino-2-(2-amino)ethoxyethane","-","Koerner","charochkina","A5793","-","-","-","9.3","Log unit","9.3","Log unit","NCCOCCN","3","","{nr2=[3, 6]}","O(CCN)CCN","nr2","25.0","?C","true","-","GXVUZYLYWKWJIM-UHFFFAOYSA"