Smiles,CASRN,Record ID,Molecule ID,External ID,N,Name,Introducer,Modifer,Article ID,PUBMED ID,PAGE,TABLE,pKa,pKa Unit,Temperature,Temperature Unit,Ionizable center smiles,IC group
OC(=O)C(Cl)(Cl)Cl,76-03-9,R1509615,M17430,-,106,TRICHLOROACETIC ACID,Koerner,Koerner,A8743,19630371,-,-,0.51,Log unit,,-,OC(=O)C(Cl)(Cl)Cl,
C[C@]12[C@@H]3[C@@H](C(O)=O)[C@]45CC(=C)[C@@](O)(C4)CC[C@@H]5[C@@]3(OC1=O)C=C[C@H]2O,77-06-5,R1509616,M1107479,-,107,gibberellic acid,Koerner,Koerner,A8743,19630371,-,-,4,Log unit,,-,OC(=O)C1C23C(C45OC(=O)C(C14)(C(C=C5)O)C)CCC(O)(C2)C(=C)C3,
OC(=O)C(Cl)Cl,79-43-6,R1509617,M17565,-,108,DICHLOROACETIC ACID,Koerner,Koerner,A8743,19630371,-,-,1.26,Log unit,,-,OC(=O)C(Cl)Cl,
CC(C)C(O)=O,79-31-2,R1509618,M5785,-,109,2-Methylpropanoic acid,Koerner,Koerner,A8743,19630371,-,-,4.84,Log unit,,-,OC(=O)C(C)C,
OCC(O)=O,79-14-1,R1509619,M94,-,110,hydroxyacetic acid,Koerner,Koerner,A8743,19630371,-,-,3.83,Log unit,,-,OC(=O)CO,
OC(=O)CCl,79-11-8,R1509620,M2769,-,111,chloroacetic acid,Koerner,Koerner,A8743,19630371,-,-,2.87,Log unit,,-,OC(=O)CCl,
CCC(O)=O,79-09-4,R1509621,M12780,-,112,Propanoic acid,Koerner,Koerner,A8743,19630371,-,-,4.88,Log unit,,-,OC(=O)CC,
OC(=O)CBr,79-08-3,R1509622,M5489,-,113,Bromoacetic Acid,Koerner,Koerner,A8743,19630371,-,-,2.89,Log unit,,-,OC(=O)CBr,
C[C@H](CCC(O)=O)[C@H]1CC[C@H]2[C@@H]3[C@H](O)C[C@@H]4C[C@H](O)CC[C@]4(C)[C@H]3C[C@H](O)[C@]12C,81-25-4,R1509623,M771,-,114,"3,7,12-Trihydroxycholan-24-oic acid",Koerner,Koerner,A8743,19630371,-,-,4.98,Log unit,,-,OC(=O)CCC(C1C2(C(C3C(C4(C(CC3O)CC(O)CC4)C)CC2O)CC1)C)C,
OC(=O)CC1=C(Cl)C=CC(Cl)=C1Cl,85-34-7,R1509624,M9561,-,115,"(2,3,6-Trichlorophenyl)acetic acid",Koerner,Koerner,A8743,19630371,-,-,3.7,Log unit,,-,OC(=O)Cc1c(Cl)ccc(Cl)c1Cl,
OC(=O)CC1=C2C=CC=CC2=CC=C1,86-87-3,R1509625,M8773,-,116,1-naphthalenylacetic acid,Koerner,Koerner,A8743,19630371,-,-,4.23,Log unit,,-,OC(=O)Cc1cccc2ccccc12,
OC(=O)CC1=CNC2=CC=CC=C12,87-51-4,R1509626,M10299,-,117,1H-indol-3-ylacetic acid,Koerner,Koerner,A8743,19630371,-,-,4.75,Log unit,,-,OC(=O)Cc1c[nH]c2c1cccc2,
CC1(C)S[C@@H]2[C@H](NC(=O)COC3=CC=CC=C3)C(=O)N2[C@H]1C(O)=O,87-08-1,R1509627,M929,-,118,"3,3-dimethyl-7-oxo-6-{[(phenyloxy)acetyl]amino}-4-thia-1-azabicyclo[3.2.0]heptane-2-carboxylic acid/phenoxymethylpenicillin",Koerner,Koerner,A8743,19630371,-,-,2.79,Log unit,,-,OC(=O)C1C(C)(C)SC2C(C(=O)N12)NC(=O)COc1ccccc1,
CCC(CC)C(O)=O,88-09-5,R1509628,M8338,-,119,2-Ethylbutanoic acid,Koerner,Koerner,A8743,19630371,-,-,4.71,Log unit,,-,OC(=O)C(CC)CC,
OC(C(O)=O)C1=CC=CC=C1,90-64-2,R1509629,M4751,-,120,Hydroxy(phenyl)acetic acid,Koerner,Koerner,A8743,19630371,-,-,3.41,Log unit,,-,OC(=O)C(O)c1ccccc1,
OC(=O)COC1=CC(Cl)=C(Cl)C=C1Cl,93-76-5,R1509630,M10491,-,121,"[(2,4,5-trichlorophenyl)oxy]acetic acid",Koerner,Koerner,A8743,19630371,-,-,2.83,Log unit,,-,OC(=O)COc1cc(Cl)c(Cl)cc1Cl,
C[C@H](OC1=CC(Cl)=C(Cl)C=C1Cl)C(O)=O,93-72-1,R1509631,M130896,-,122,"2-[(2,4,5-trichlorophenyl)oxy]propanoic acid",Koerner,Koerner,A8743,19630371,-,-,2.84,Log unit,,-,OC(=O)C(Oc1cc(c(Cl)cc1Cl)Cl)C,
OC(=O)CCCOC1=CC=C(Cl)C=C1Cl,94-82-6,R1509632,M13560,-,123,"4-[(2,4-dichlorophenyl)oxy]butanoic acid",Koerner,Koerner,A8743,19630371,-,-,4.95,Log unit,,-,OC(=O)CCCOc1c(Cl)cc(cc1)Cl,
CC1=CC(Cl)=CC=C1OCCCC(O)=O,94-81-5,R1509633,M18121,-,124,4-[(4-chloro-2-methylphenyl)oxy]butanoic acid,Koerner,Koerner,A8743,19630371,-,-,6.2,Log unit,,-,OC(=O)CCCOc1ccc(cc1C)Cl,
OC(=O)COC1=C(Cl)C=C(Cl)C=C1,94-75-7,R1509634,M8292,-,125,"[(2,4-dichlorophenyl)oxy]acetic acid",Koerner,Koerner,A8743,19630371,-,-,2.73,Log unit,,-,OC(=O)COc1ccc(cc1Cl)Cl,
CC1=CC(Cl)=CC=C1OCC(O)=O,94-74-6,R1509635,M12292,-,126,[(4-chloro-2-methylphenyl)oxy]acetic acid,Koerner,Koerner,A8743,19630371,-,-,3.13,Log unit,,-,OC(=O)COc1ccc(Cl)cc1C,
CCCC(C)C(O)=O,97-61-0,R1509636,M18211,-,127,2-Methylpentanoic acid,Koerner,Koerner,A8743,19630371,-,-,4.79,Log unit,,-,OC(=O)C(CCC)C,
OC(=O)C1CCCCC1,98-89-5,R1509637,M7717,-,128,cyclohexanecarboxylic acid,Koerner,Koerner,A8743,19630371,-,-,4.9,Log unit,,-,OC(=O)C1CCCCC1,
CCCC(CCC)C(O)=O,99-66-1,R1509638,M7341,-,129,2-Propylpentanoic acid,Koerner,Koerner,A8743,19630371,-,-,4.6,Log unit,,-,OC(=O)C(CCC)CCC,
OC(=O)CC1=CC=C(O)C(O)=C1,102-32-9,R1509639,M18409,-,130,"(3,4-DIHYDROXYPHENYL)ACETIC ACID",Koerner,Koerner,A8743,19630371,-,-,4.25,Log unit,,-,OC(=O)Cc1ccc(O)c(O)c1,
OC(=O)CC1=CC=CC=C1,103-82-2,R1509640,M12394,-,131,phenylacetic acid,Koerner,Koerner,A8743,19630371,-,-,4.31,Log unit,,-,OC(=O)Cc1ccccc1,
OC(=O)CC1=CC=C(C=C1)[N+]([O-])=O,104-03-0,R1509641,M13397,-,132,(4-Nitrophenyl)acetic acid,Koerner,Koerner,A8743,19630371,-,-,3.85,Log unit,,-,OC(=O)Cc1ccc([N+](=O)[O-])cc1,
COC1=CC=C(CC(O)=O)C=C1,104-01-8,R1509642,M7546,-,133,[4-(methyloxy)phenyl]acetic acid,Koerner,Koerner,A8743,19630371,-,-,4.36,Log unit,,-,OC(=O)Cc1ccc(cc1)OC,
OC(=O)CCCl,107-94-8,R1509643,M9074,-,134,3-Chloropropanoic acid,Koerner,Koerner,A8743,19630371,-,-,3.99,Log unit,,-,OC(=O)CCCl,
CCCC(O)=O,107-92-6,R1509644,M2541,-,135,butanoic acid,Koerner,Koerner,A8743,19630371,-,-,4.82,Log unit,,-,OC(=O)CCC,
CC[C@@H](C)C(O)=O,116-53-0,R1509645,M67097,-,136,2-Methylbutanoic acid,Koerner,Koerner,A8743,19630371,-,-,4.81,Log unit,,-,OC(=O)C(CC)C,
OC(=O)C(C1=CC=CC=C1)C1=CC=CC=C1,117-34-0,R1509646,M8924,-,137,diphenylacetic acid,Koerner,Koerner,A8743,19630371,-,-,3.94,Log unit,,-,OC(=O)C(c1ccccc1)c1ccccc1,
C[C@H](OC1=C(Cl)C=C(Cl)C=C1)C(O)=O,120-36-5,R1509647,M130897,-,138,"2-[(2,4-dichlorophenyl)oxy]propanoic acid",Koerner,Koerner,A8743,19630371,-,-,3.1,Log unit,,-,OC(=O)C(Oc1c(Cl)cc(cc1)Cl)C,
OC(=O)COC1=CC=C(Cl)C=C1,122-88-3,R1509648,M10518,-,139,[(4-chlorophenyl)oxy]acetic acid,Koerner,Koerner,A8743,19630371,-,-,3.1,Log unit,,-,OC(=O)COc1ccc(Cl)cc1,
OC(=O)COC1=CC=CC=C1,122-59-8,R1509649,M6066,-,140,(phenyloxy)acetic acid,Koerner,Koerner,A8743,19630371,-,-,3.17,Log unit,,-,OC(=O)COc1ccccc1,
CC(=O)CCC(O)=O,123-76-2,R1509650,M19168,-,141,4-Oxopentanoic acid,Koerner,Koerner,A8743,19630371,-,-,4.64,Log unit,,-,OC(=O)CCC(=O)C,
[O-]C(=O)CC([O-])=O,141-82-2,R1509651,M7880,-,142,propanedioic acid,Koerner,Koerner,A8743,19630371,-,-,2.85,Log unit,,-,[O-]C(=O)CC(=O)[O-],
OC(=O)CF,144-49-0,R1509652,M19636,-,143,FLUOROACETIC ACID,Koerner,Koerner,A8743,19630371,-,-,2.59,Log unit,,-,OC(=O)CF,
C[C@@H](O)CC(O)=O,300-85-6,R1509653,M67287,-,144,3-hydroxybutanoic acid,Koerner,Koerner,A8743,19630371,-,-,4.41,Log unit,,-,OC(=O)CC(O)C,
OC(=O)CCCC1=CC=C(C=C1)N(CCCl)CCCl,305-03-3,R1509654,M4913,-,145,4-{4-[bis(2-chloroethyl)amino]phenyl}butanoic acid/chlorambucil,Koerner,Koerner,A8743,19630371,-,-,5.75,Log unit,,-,OC(=O)CCCc1ccc(cc1)N(CCCl)CCCl,
COC1=C(O)C=CC(CC(O)=O)=C1,306-08-1,R1509655,M15777,-,146,[4-hydroxy-3-(methyloxy)phenyl]acetic acid,Koerner,Koerner,A8743,19630371,-,-,4.41,Log unit,,-,OC(=O)Cc1cc(OC)c(O)cc1,
O[C@@H]1C[C@](O)(C[C@@H](OC(=O)\C=C\C2=CC(O)=C(O)C=C2)[C@@H]1O)C(O)=O,327-97-9,R1509656,M55257,-,147,"3-{[(2E)-3-(3,4-dihydroxyphenyl)-2-propenoyl]oxy}-1,4,5-trihydroxycyclohexanecarboxylic acid/chlorogenic acid",Koerner,Koerner,A8743,19630371,-,-,2.66,Log unit,,-,OC(=O)C1(O)CC(OC(=O)C=Cc2cc(O)c(O)cc2)C(O)C(O)C1,
OC(=O)CC1=CC(F)=CC=C1,331-25-9,R1509657,M13466,-,148,(3-fluorophenyl)acetic acid,Koerner,Koerner,A8743,19630371,-,-,4.13,Log unit,,-,OC(=O)Cc1cc(F)ccc1,
OC(=O)COC1=C(F)C=CC=C1,348-10-7,R1509658,M1276,-,149,[(2-fluorophenyl)oxy]acetic acid,Koerner,Koerner,A8743,19630371,-,-,3.08,Log unit,,-,OC(=O)COc1ccccc1F,
OC(=O)CC#N,372-09-8,R1509659,M20250,-,150,CYANOACETIC ACID,Koerner,Koerner,A8743,19630371,-,-,2.45,Log unit,,-,OC(=O)CC#N,
OC(=O)COC1=CC(F)=CC=C1,404-98-8,R1509660,M2101,-,151,[(3-fluorophenyl)oxy]acetic acid,Koerner,Koerner,A8743,19630371,-,-,3.13,Log unit,,-,OC(=O)COc1cc(F)ccc1,
OC(=O)COC1=CC=C(F)C=C1,405-79-8,R1509661,M13985,-,152,[(4-fluorophenyl)oxy]acetic acid,Koerner,Koerner,A8743,19630371,-,-,3.13,Log unit,,-,OC(=O)COc1ccc(cc1)F,
OC(=O)CC1=CC=C(F)C=C1,405-50-5,R1509662,M6745,-,153,(4-Fluorophenyl)acetic acid,Koerner,Koerner,A8743,19630371,-,-,4.24,Log unit,,-,OC(=O)Cc1ccc(cc1)F,
NC(=O)NCC(O)=O,462-60-2,R1509663,M20564,-,154,N-(AMINOCARBONYL)GLYCINE,Koerner,Koerner,A8743,19630371,-,-,3.89,Log unit,,-,OC(=O)CNC(=O)N,
OC(=O)C1(O)C2=CC=CC=C2C2=CC=CC=C12,467-69-6,R1509664,M20626,-,155,9-hydroxy-9H-fluorene-9-carboxylic acid/flurenol,Koerner,Koerner,A8743,19630371,-,-,1.09,Log unit,,-,OC(=O)C1(c2ccccc2c2ccccc12)O,
OC[C@@H](O)C(O)=O,473-81-4,R1509665,M55927,-,156,"2,3-dihydroxypropanoic acid",Koerner,Koerner,A8743,19630371,-,-,3.55,Log unit,,-,OC(=O)C(O)CO,
OC(=O)CCC1=CC=CC=C1,501-52-0,R1509666,M13058,-,157,3-Phenylpropanoic acid,Koerner,Koerner,A8743,19630371,-,-,4.66,Log unit,,-,OC(=O)CCc1ccccc1,
CC(C)CC(O)=O,503-74-2,R1509667,M3566,-,158,3-Methylbutanoic acid,Koerner,Koerner,A8743,19630371,-,-,4.77,Log unit,,-,OC(=O)CC(C)C,
OCCC(O)=O,503-66-2,R1509668,M20996,-,159,3-Hydroxypropanoic acid,Koerner,Koerner,A8743,19630371,-,-,4.51,Log unit,,-,OC(=O)CCO,
CC(O)(C(O)=O)C1=CC=CC=C1,515-30-0,R1509669,M21134,-,160,2-Hydroxy-2-phenylpropanoic acid,Koerner,Koerner,A8743,19630371,-,-,3.53,Log unit,,-,OC(=O)C(O)(c1ccccc1)C,
CC(C(O)=O)C(O)=O,516-05-2,R1509670,M21151,-,161,methylpropanedioic acid,Koerner,Koerner,A8743,19630371,-,-,3.12,Log unit,,-,OC(=O)C(C)C(=O)O,
OC(=O)CCCCCC1NC(=O)CS1,539-35-5,R1509671,M21444,-,162,"6-(4-oxo-1,3-thiazolidin-2-yl)hexanoic acid/mycobacidin",Koerner,Koerner,A8743,19630371,-,-,5.1,Log unit,,-,OC(=O)CCCCCC1SCC(=O)N1,
OC(=O)CC1=CC=C2C=CC=CC2=C1,581-96-4,R1509672,M21911,-,163,2-naphthalenylacetic acid,Koerner,Koerner,A8743,19630371,-,-,4.25,Log unit,,-,OC(=O)Cc1ccc2ccccc2c1,
OC(=O)COC1=CC(Cl)=CC=C1,588-32-9,R1509673,M13195,-,164,[(3-chlorophenyl)oxy]acetic acid,Koerner,Koerner,A8743,19630371,-,-,3.07,Log unit,,-,OC(=O)COc1cc(Cl)ccc1,
OC(=O)COC1=CC(Cl)=C(Cl)C=C1,588-22-7,R1509674,M10517,-,165,"[(3,4-dichlorophenyl)oxy]acetic acid",Koerner,Koerner,A8743,19630371,-,-,2.92,Log unit,,-,OC(=O)COc1ccc(c(Cl)c1)Cl,
CC(C)(O)C(O)=O,594-61-6,R1509675,M1103,-,166,2-Hydroxy-2-methylpropanoic acid,Koerner,Koerner,A8743,19630371,-,-,3.61,Log unit,,-,OC(=O)C(C)(C)O,
CC(C)(C([O-])=O)C([O-])=O,595-46-0,R1509676,M8180,-,167,dimethylpropanedioic acid,Koerner,Koerner,A8743,19630371,-,-,3.15,Log unit,,-,[O-]C(=O)C(C)(C)C(=O)[O-],
CCC(C)(C)C(O)=O,595-37-9,R1509677,M22154,-,168,"2,2-Dimethylbutanoic acid",Koerner,Koerner,A8743,19630371,-,-,5.03,Log unit,,-,OC(=O)C(CC)(C)C,
CC(Cl)C(O)=O,598-78-7,R1509678,M22216,-,169,2-CHLOROPROPANOIC ACID,Koerner,Koerner,A8743,19630371,-,-,2.8,Log unit,,-,OC(=O)C(Cl)C,
CC(Br)C(O)=O,598-72-1,R1509679,M6905,-,170,2-Bromopropanoic acid,Koerner,Koerner,A8743,19630371,-,-,2.97,Log unit,,-,OC(=O)C(Br)C,
CCC(C(O)=O)C(O)=O,601-75-2,R1509680,M22253,-,171,ethylpropanedioic acid,Koerner,Koerner,A8743,19630371,-,-,2.96,Log unit,,-,OC(=O)C(CC)C(=O)O,
C1CNCCN1,-,R1321976,M3320,-,164,piperazine,Koerner,charochkina,A4065,19961204,-,-,5.333,Log unit,,-,N1CCNCC1,
C1CNCCN1,-,R1321977,M3320,-,164,piperazine,Koerner,charochkina,A4065,19961204,-,-,9.731,Log unit,,-,N1CCNCC1,
CCN(CC)CCOC(=O)C1=CC=C(N)C=C1,-,R1321978,M6716,-,167,procaine,Koerner,charochkina,A4065,19961204,-,-,2.29,Log unit,,-,Nc1ccc(cc1)C(=O)OCCN(CC)CC,
CCN(CC)CCOC(=O)C1=CC=C(N)C=C1,-,R1321979,M6716,-,167,procaine,Koerner,charochkina,A4065,19961204,-,-,9.04,Log unit,,-,N(CCOC(=O)c1ccc(cc1)N)(CC)CC,
CC1=NC=C(CO)C(C=O)=C1O,-,R1321980,M17299,-,174,PYRIDOXAL,Koerner,charochkina,A4065,19961204,-,-,4.215,Log unit,,-,n1cc(CO)c(c(c1C)O)C=O,
CC1=NC=C(CO)C(C=O)=C1O,-,R1321981,M17299,-,174,PYRIDOXAL,Koerner,charochkina,A4065,19961204,-,-,8.68,Log unit,,-,Oc1c(c(cnc1C)CO)C=O,
[H]OC1=C(C([H])=O)C(=C([H])N=C1C([H])([H])[H])C([H])([H])OP(=O)(O[H])O[H],-,R1321982,M7310,-,175,PYRIDOXAL-5-PHOSPHATE,Koerner,charochkina,A4065,19961204,-,-,4.14,Log unit,,-,n1cc(c(C=O)c(c1C)O)COP(=O)(O)O,
[H]OC1=C(C([H])=O)C(=C([H])N=C1C([H])([H])[H])C([H])([H])OP(=O)(O[H])O[H],-,R1321983,M7310,-,175,PYRIDOXAL-5-PHOSPHATE,Koerner,charochkina,A4065,19961204,-,-,6.2,Log unit,,-,OP(=O)(OCc1cnc(c(c1C=O)O)C)O,
[H]OC1=C(C([H])=O)C(=C([H])N=C1C([H])([H])[H])C([H])([H])OP(=O)(O[H])O[H],-,R1321984,M7310,-,175,PYRIDOXAL-5-PHOSPHATE,Koerner,charochkina,A4065,19961204,-,-,8.69,Log unit,,-,Oc1c(c(cnc1C)COP(=O)(O)O)C=O,
CC1=C(O)C(CN)=C(CO)C=N1,-,R1321985,M7335,-,176,pyridoxamine,Koerner,charochkina,A4065,19961204,-,-,10.38,Log unit,,-,NCc1c(cnc(c1O)C)CO,
CC1=C(O)C(CN)=C(CO)C=N1,-,R1321986,M7335,-,176,pyridoxamine,Koerner,charochkina,A4065,19961204,-,-,8.11,Log unit,,-,Oc1c(c(cnc1C)CO)CN,
COC1=CC2=C(C=CN=C2C=C1)[C@@H](O)[C@@H]1C[C@H]2CCN1C[C@@H]2C=C,-,R1321987,M53361,-,178,Quinine,Koerner,charochkina,A4065,19961204,-,-,4.33,Log unit,,-,n1ccc(C(C2CC3C(CN2CC3)C=C)O)c2c1ccc(c2)OC,
COC1=CC2=C(C=CN=C2C=C1)[C@@H](O)[C@@H]1C[C@H]2CCN1C[C@@H]2C=C,-,R1321988,M53361,-,178,Quinine,Koerner,charochkina,A4065,19961204,-,-,8.56,Log unit,,-,N12C(C(c3ccnc4c3cc(OC)cc4)O)CC(C(C1)C=C)CC2,
CC(C)NC[C@@H](O)C1=CC=C(NS(C)(=O)=O)C=C1,-,R1321989,M13990,-,182,Sotalol,Koerner,charochkina,A4065,19961204,-,-,8.29,Log unit,,-,N(CC(c1ccc(cc1)NS(=O)(=O)C)O)C(C)C,
CC(C)NC[C@@H](O)C1=CC=C(NS(C)(=O)=O)C=C1,-,R1321990,M13990,-,182,Sotalol,Koerner,charochkina,A4065,19961204,-,,9.72,Log unit,,-,N(S(=O)(=O)C)c1ccc(C(O)CNC(C)C)cc1,
O=C1C[C@@H]2OCC=C3CN4CC[C@@]56[C@@H]4C[C@@H]3[C@@H]2[C@@H]5N1C1=CC=CC=C61,-,R1321991,M9252,-,183,strychnine,Koerner,charochkina,A4065,19961204,-,-,8.26,Log unit,,-,N12C3C4(C5N(C(=O)CC6C5C(C3)C(=CCO6)C1)c1c4cccc1)CC2,
OC(=O)CCC(O)=O,-,R1321992,M5500,-,184,succinic acid,Koerner,charochkina,A4065,19961204,-,-,4.207,Log unit,,-,OC(=O)CCC(=O)O,
OC(=O)CCC(O)=O,-,R1321993,M5500,-,184,succinic acid,Koerner,charochkina,A4065,19961204,-,-,5.638,Log unit,,-,OC(=O)CCC(=O)O,
CC(=O)NS(=O)(=O)C1=CC=C(N)C=C1,-,R1321994,M10427,-,185,Sulfacetamide,Koerner,charochkina,A4065,19961204,-,-,1.76,Log unit,,-,Nc1ccc(cc1)S(=O)(=O)NC(=O)C,
CC(=O)NS(=O)(=O)C1=CC=C(N)C=C1,-,R1321995,M10427,-,185,Sulfacetamide,Koerner,charochkina,A4065,19961204,-,-,5.26,Log unit,,-,N(S(=O)(=O)c1ccc(cc1)N)C(=O)C,
CNC[C@@H](O)C1=CC=C(O)C=C1,-,R1321996,M659584,-,666,Synephrine,Koerner,charochkina,A4065,19961204,4,6,9.6,Log unit,,-,Oc1ccc(cc1)C(CNC)O,
O[C@H]([C@@H](O)C(O)=O)C(O)=O,-,R1321997,M110845,-,187,tartaric acid,Koerner,charochkina,A4065,19961204,-,-,3.033,Log unit,,-,OC(=O)C(C(C(=O)O)O)O,
O[C@H]([C@@H](O)C(O)=O)C(O)=O,-,R1321998,M110845,-,187,tartaric acid,Koerner,charochkina,A4065,19961204,-,-,4.366,Log unit,,-,OC(=O)C(O)C(C(=O)O)O,
CC(C)(C)NC[C@@H](O)C1=CC(O)=CC(O)=C1,-,R1321999,M13292,-,666,Terbutaline,Koerner,charochkina,A4065,19961204,4,6,8.65,Log unit,,-,Oc1cc(cc(c1)O)C(CNC(C)(C)C)O,
N[C@@H](CC1=CNC2=C1C=CC=C2)C(O)=O,-,R1322000,M9178,-,192,Tryptophan,Koerner,charochkina,A4065,19961204,-,-,2.36,Log unit,,-,OC(=O)C(Cc1c2ccccc2[nH]c1)N,
N[C@@H](CC1=CNC2=C1C=CC=C2)C(O)=O,-,R1322001,M9178,-,192,Tryptophan,Koerner,charochkina,A4065,19961204,-,-,9.42,Log unit,,-,NC(Cc1c2ccccc2[nH]c1)C(=O)O,
[H]OC(=O)[C@@]([H])(N([H])[H])C([H])([H])C1=C([H])C([H])=C(O[H])C([H])=C1[H],-,R1322002,M8281,-,193,tyrosine,Koerner,charochkina,A4065,19961204,-,-,2.06,Log unit,,-,OC(=O)C(Cc1ccc(cc1)O)N,
[H]OC(=O)[C@@]([H])(N([H])[H])C([H])([H])C1=C([H])C([H])=C(O[H])C([H])=C1[H],-,R1322003,M8281,-,193,tyrosine,Koerner,charochkina,A4065,19961204,-,-,9.145,Log unit,,-,NC(Cc1ccc(cc1)O)C(=O)O,
[H]OC(=O)[C@@]([H])(N([H])[H])C([H])([H])C1=C([H])C([H])=C(O[H])C([H])=C1[H],-,R1322004,M8281,-,193,tyrosine,Koerner,charochkina,A4065,19961204,-,-,10.265,Log unit,,-,Oc1ccc(cc1)CC(C(=O)O)N,
CC(=O)C[C@H](C1=CC=CC=C1)C1=C(O)C2=C(OC1=O)C=CC=C2,-,R1322005,M406522,-,666,Warfarin,Koerner,charochkina,A4065,19961204,4,6,5.02,Log unit,,-,Oc1c2ccccc2oc(=O)c1C(c1ccccc1)CC(=O)C,
OC(=O)C1=CC=C(Cl)C(Cl)=C1,51-44-5,R1509510,M17001,-,1,"3,4-DICHLOROBENZOIC ACID",Koerner,Koerner,A8743,19630371,-,-,3.64,Log unit,,-,OC(=O)c1cc(Cl)c(cc1)Cl,
OC(=O)C1=CC(Cl)=CC(Cl)=C1,51-36-5,R1509511,M16997,-,2,"3,5-DICHLOROBENZOIC ACID",Koerner,Koerner,A8743,19630371,-,-,3.54,Log unit,,-,OC(=O)c1cc(Cl)cc(c1)Cl,
CCCN(CCC)S(=O)(=O)C1=CC=C(C=C1)C(O)=O,57-66-9,R1509512,M1808,-,3,4-[(dipropylamino)sulfonyl]benzoic acid/probenecid,Koerner,Koerner,A8743,19630371,-,-,3.4,Log unit,,-,OC(=O)c1ccc(S(=O)(=O)N(CCC)CCC)cc1,
OC(=O)C1=CC=C(C=C1)N(=O)=O,62-23-7,R1509513,M8250,-,4,4-nitrobenzoic acid,Koerner,Koerner,A8743,19630371,-,-,3.44,Log unit,,-,OC(=O)c1ccc(N(=O)=O)cc1,
OC(=O)C1=CC=CC=C1,65-85-0,R1509514,M12504,-,5,Benzoic acid,Koerner,Koerner,A8743,19630371,-,-,4.19,Log unit,,-,OC(=O)c1ccccc1,
OC(=O)C1=CC=C(Cl)C=C1,74-11-3,R1509515,M13178,-,6,4-Chlorobenzoic Acid,Koerner,Koerner,A8743,19630371,-,-,3.98,Log unit,,-,OC(=O)c1ccc(Cl)cc1,
OC(=O)C1=CC=C2C=CC=CC2=C1,93-09-4,R1509516,M18051,-,7,2-Naphthalenecarboxylic acid,Koerner,Koerner,A8743,19630371,-,-,4.17,Log unit,,-,OC(=O)c1ccc2c(cccc2)c1,
COC1=CC=C(C=C1OC)C(O)=O,93-07-2,R1509517,M18050,-,8,"3,4-DIMETHOXYBENZOIC ACID",Koerner,Koerner,A8743,19630371,-,-,4.36,Log unit,,-,OC(=O)c1ccc(OC)c(OC)c1,
CC(C)(C)C1=CC=C(C=C1)C(O)=O,98-73-7,R1509518,M18258,-,9,"4-(1,1-dimethylethyl)benzoic acid",Koerner,Koerner,A8743,19630371,-,-,4.4,Log unit,,-,OC(=O)c1ccc(cc1)C(C)(C)C,
OC(=O)C1=CC=C(O)C=C1,99-96-7,R1509519,M2644,-,10,4-Hydroxybenzoic Acid,Koerner,Koerner,A8743,19630371,-,-,4.54,Log unit,,-,OC(=O)c1ccc(O)cc1,
CC1=CC=C(C=C1)C(O)=O,99-94-5,R1509520,M6364,-,11,4-Methylbenzoic acid,Koerner,Koerner,A8743,19630371,-,-,4.37,Log unit,,-,OC(=O)c1ccc(C)cc1,
OC(=O)C1=CC=C(O)C(O)=C1,99-50-3,R1509521,M18287,-,12,"3,4-DIHYDROXYBENZOIC ACID",Koerner,Koerner,A8743,19630371,-,-,4.48,Log unit,,-,OC(=O)c1ccc(O)c(O)c1,
OC(=O)C1=CC(=CC(=C1)N(=O)=O)N(=O)=O,99-34-3,R1509522,M18281,-,13,"3,5-DINITROBENZOIC ACID",Koerner,Koerner,A8743,19630371,-,-,2.82,Log unit,,-,OC(=O)c1cc(N(=O)=O)cc(N(=O)=O)c1,
OC(=O)C1=CC(O)=CC(O)=C1,99-10-5,R1509523,M18271,-,14,"3,5-DIHYDROXYBENZOIC ACID",Koerner,Koerner,A8743,19630371,-,-,4.04,Log unit,,-,OC(=O)c1cc(O)cc(O)c1,
NC1=CC(=CC=C1)C(O)=O,99-05-8,R1509524,M12880,-,15,3-Aminobenzoic acid,Koerner,Koerner,A8743,19630371,-,-,4.74,Log unit,,-,OC(=O)c1cc(N)ccc1,
CC1=CC(=CC=C1)C(O)=O,99-04-7,R1509525,M3418,-,16,3-Methylbenzoic acid,Koerner,Koerner,A8743,19630371,-,-,4.27,Log unit,,-,OC(=O)c1cc(C)ccc1,
COC1=CC=C(C=C1)C(O)=O,100-09-4,R1509526,M14072,-,17,4-(methyloxy)benzoic acid,Koerner,Koerner,A8743,19630371,-,-,4.47,Log unit,,-,OC(=O)c1ccc(OC)cc1,
OC(=O)C1=CC(=CC=C1)N(=O)=O,121-92-6,R1509527,M120,-,18,3-nitrobenzoic acid,Koerner,Koerner,A8743,19630371,-,-,3.46,Log unit,,-,OC(=O)c1cc(N(=O)=O)ccc1,
COC1=CC(=CC=C1O)C(O)=O,121-34-6,R1509528,M12372,-,19,4-hydroxy-3-(methyloxy)benzoic acid,Koerner,Koerner,A8743,19630371,-,-,4.51,Log unit,,-,OC(=O)c1cc(c(O)cc1)OC,
OC(=O)C1=CC(O)=C(O)C(O)=C1,149-91-7,R1509529,M6312,-,20,"3,4,5-Trihydroxybenzoic acid",Koerner,Koerner,A8743,19630371,-,-,4.21,Log unit,,-,OC(=O)c1cc(O)c(O)c(O)c1,
NC1=CC=C(C=C1)C(O)=O,150-13-0,R1509530,M273,-,21,4-Aminobenzoic acid,Koerner,Koerner,A8743,19630371,-,-,4.85,Log unit,,-,OC(=O)c1ccc(cc1)N,
OC(=O)C1=CC(F)=CC=C1,455-38-9,R1509531,M7098,-,22,3-FLUOROBENZOIC ACID,Koerner,Koerner,A8743,19630371,-,-,3.86,Log unit,,-,OC(=O)c1cc(F)ccc1,
OC(=O)C1=CC=C(F)C=C1,456-22-4,R1509532,M659,-,23,4-Fluorobenzoic Acid,Koerner,Koerner,A8743,19630371,-,-,4.14,Log unit,,-,OC(=O)c1ccc(F)cc1,
OC(=O)C1=CC=C(C(=C1)N(=O)=O)N(=O)=O,528-45-0,R1509533,M21276,-,24,"3,4-DINITROBENZOIC ACID",Koerner,Koerner,A8743,19630371,-,-,2.82,Log unit,,-,OC(=O)c1ccc(N(=O)=O)c(N(=O)=O)c1,
COC1=CC(=CC(OC)=C1O)C(O)=O,530-57-4,R1509534,M21316,-,25,"4-hydroxy-3,5-bis(methyloxy)benzoic acid",Koerner,Koerner,A8743,19630371,-,-,4.34,Log unit,,-,OC(=O)c1cc(OC)c(O)c(OC)c1,
OC(=O)C1=CC=CC(Cl)=C1,535-80-8,R1509535,M6489,-,26,3-Chlorobenzoic Acid,Koerner,Koerner,A8743,19630371,-,-,2.81,Log unit,,-,OC(=O)c1cc(Cl)ccc1,
CC(C)C1=CC=C(C=C1)C(O)=O,536-66-3,R1509536,M21401,-,27,4-(1-Methylethyl)benzoic acid,Koerner,Koerner,A8743,19630371,-,-,4.35,Log unit,,-,OC(=O)c1ccc(C(C)C)cc1,
OC(=O)C1=CC(Br)=CC=C1,585-76-2,R1509537,M11849,-,28,3-Bromobenzoic Acid,Koerner,Koerner,A8743,19630371,-,-,3.81,Log unit,,-,OC(=O)c1cc(Br)ccc1,
CC(=O)C1=CC=C(C=C1)C(O)=O,586-89-0,R1509538,M21971,-,29,4-ACETYLBENZOIC ACID,Koerner,Koerner,A8743,19630371,-,-,3.7,Log unit,,-,OC(=O)c1ccc(C(=O)C)cc1,