Smiles,CASRN,Record ID,Molecule ID,External ID,N,Name,Introducer,Modifer,Article ID,PUBMED ID,PAGE,TABLE,pKa,pKa Unit,Temperature,Temperature Unit,Ionizable center smiles,IC group
OC(=O)C1=CC=C(Br)C=C1,586-76-5,R1509539,M10796,-,30,4-Bromobenzoic Acid,Koerner,Koerner,A8743,19630371,-,-,4,Log unit,,-,OC(=O)c1ccc(Br)cc1,
COC1=CC=CC(=C1)C(O)=O,586-38-9,R1509540,M12939,-,31,3-(methyloxy)benzoic acid,Koerner,Koerner,A8743,19630371,-,-,4.09,Log unit,,-,OC(=O)c1cc(OC)ccc1,
CCOC1=CC=C(C=C1)C(O)=O,619-86-3,R1509541,M22617,-,32,4-(ethyloxy)benzoic acid,Koerner,Koerner,A8743,19630371,-,-,4.45,Log unit,,-,OC(=O)c1ccc(OCC)cc1,
[OH:1][C:2](=[O:3])[C:4]1=[CH:11][CH:10]=[C:7]([CH:8]=[O:9])[CH:6]=[CH:5]1,619-66-9,R1509542,M22615,-,33,4-FORMYLBENZOIC ACID,Koerner,Koerner,A8743,19630371,-,-,3.77,Log unit,,-,OC(=O)c1ccc(C=O)cc1,
OC(=O)C1=CC=C(C=C1)C#N,619-65-8,R1509543,M60,-,34,4-Cyanobenzoic acid,Koerner,Koerner,A8743,19630371,-,-,3.55,Log unit,,-,OC(=O)c1ccc(C#N)cc1,
CCC1=CC=C(C=C1)C(O)=O,619-64-7,R1509544,M22614,-,35,4-ETHYLBENZOIC ACID,Koerner,Koerner,A8743,19630371,-,-,4.35,Log unit,,-,OC(=O)c1ccc(CC)cc1,
OC(=O)C1=CC(C=O)=CC=C1,619-21-6,R1509545,M22602,-,36,3-FORMYLBENZOIC ACID,Koerner,Koerner,A8743,19630371,-,-,3.84,Log unit,,-,OC(=O)c1cccc(C=O)c1,
NC1=C(N)C=C(C=C1)C(O)=O,619-05-6,R1509546,M3749,-,37,"3,4-Diaminobenzoic acid",Koerner,Koerner,A8743,19630371,-,-,3.49,Log unit,,-,Nc1cc(C(=O)O)ccc1N,
COC1=CC(=CC(OC)=C1)C(O)=O,1132-21-4,R1509547,M24708,-,38,"3,5-DIMETHOXYBENZOIC ACID",Koerner,Koerner,A8743,19630371,-,-,3.97,Log unit,,-,OC(=O)c1cc(OC)cc(OC)c1,
OC(=O)C1=CC(=CC=C1)C#N,1877-72-1,R1509548,M3610,-,39,3-Cyanobenzoic acid,Koerner,Koerner,A8743,19630371,-,-,3.6,Log unit,,-,OC(=O)c1cc(C#N)ccc1,
OC(=O)C1=CC=C(OC2=CC=CC=C2)C=C1,2215-77-2,R1509549,M10142,-,40,4-(phenyloxy)benzoic acid,Koerner,Koerner,A8743,19630371,-,-,4.52,Log unit,,-,OC(=O)c1ccc(cc1)Oc1ccccc1,
OC(=O)C1=CC=CC(OC2=CC=CC=C2)=C1,3739-38-6,R1509550,M28641,-,41,3-(phenyloxy)benzoic acid,Koerner,Koerner,A8743,19630371,-,-,3.92,Log unit,,-,OC(=O)c1cccc(Oc2ccccc2)c1,
CS(=O)(=O)C1=CC=C(C=C1)C(O)=O,4052-30-6,R1509551,M196,-,42,4-(Methylsulfonyl)benzoic acid,Koerner,Koerner,A8743,19630371,-,-,3.64,Log unit,,-,OC(=O)c1ccc(S(=O)(=O)C)cc1,
CCCOC1=CC=C(C=C1)C(O)=O,5438-19-7,R1509552,M30306,-,43,4-(propyloxy)benzoic acid,Koerner,Koerner,A8743,19630371,-,-,4.46,Log unit,,-,OC(=O)c1ccc(OCCC)cc1,
CC1=CC=C(C(O)=O)C(O)=C1,50-85-1,R1509554,M16980,-,45,2-Hydroxy-4-methylbenzoic acid,Koerner,Koerner,A8743,19630371,-,-,3.4,Log unit,,-,OC(=O)c1c(cc(cc1)C)O,
OC(=O)C1=CC=C(Cl)C=C1Cl,50-84-0,R1509555,M16979,-,46,"2,4-DICHLOROBENZOIC ACID",Koerner,Koerner,A8743,19630371,-,-,2.68,Log unit,,-,OC(=O)c1c(cc(cc1)Cl)Cl,
OC(=O)C1=CC(Cl)=CC=C1Cl,50-79-3,R1509556,M16977,-,47,"2,5-DICHLOROBENZOIC ACID",Koerner,Koerner,A8743,19630371,-,-,2.47,Log unit,,-,OC(=O)c1c(ccc(c1)Cl)Cl,
CC(=O)OC1=CC=CC=C1C(O)=O,50-78-2,R1509557,M1025,-,48,2-(Acetyloxy)benzoic acid,Koerner,Koerner,A8743,19630371,-,-,3.49,Log unit,,-,OC(=O)c1c(OC(=O)C)cccc1,
OC(=O)C1=C(Cl)C=CC(Cl)=C1Cl,50-31-7,R1509558,M16959,-,49,"2,3,6-TRICHLOROBENZOIC ACID",Koerner,Koerner,A8743,19630371,-,-,1.5,Log unit,,-,OC(=O)c1c(c(Cl)ccc1Cl)Cl,
OC(=O)C1=C(Cl)C=CC=C1Cl,50-30-6,R1509559,M16958,-,50,"2,6-DICHLOROBENZOIC ACID",Koerner,Koerner,A8743,19630371,-,-,1.59,Log unit,,-,OC(=O)c1c(Cl)cccc1Cl,
NC1=NC(SC2CCCCC2)=NC2=C1N=CN2C1OC(CO)C(O)C1O,59-07-4,R1509560,M1114680,-,51,4-amino-2-(ethyloxy)benzoic acid,Koerner,Koerner,A8743,19630371,-,-,5.09,Log unit,,-,n1cn(C2OC(C(O)C2O)CO)c2nc(SC3CCCCC3)nc(N)c12,
CC1=C(C)C(NC2=CC=CC=C2C(O)=O)=CC=C1,61-68-7,R1509561,M4216,-,52,"2-[(2,3-dimethylphenyl)amino]benzoic acid",Koerner,Koerner,A8743,19630371,-,-,4.2,Log unit,,-,OC(=O)c1c(Nc2c(c(C)ccc2)C)cccc1,
NC1=CC(O)=C(C=C1)C(O)=O,65-49-6,R1509562,M12608,-,53,4-Amino-2-hydroxybenzoic acid,Koerner,Koerner,A8743,19630371,-,-,3.66,Log unit,,-,OC(=O)c1ccc(N)cc1O,
OC(=O)C1=CC=CC=C1O,69-72-7,R1509563,M13520,-,54,2-Hydroxybenzoic acid,Koerner,Koerner,A8743,19630371,-,-,2.97,Log unit,,-,OC(=O)c1ccccc1O,
CC1=CC=CC(C(O)=O)=C1O,83-40-9,R1509564,M17703,-,55,2-Hydroxy-3-methylbenzoic acid,Koerner,Koerner,A8743,19630371,-,-,2.95,Log unit,,-,OC(=O)c1c(O)c(ccc1)C,
OC(=O)C1=C(Br)C=CC=C1,88-65-3,R1509565,M17889,-,56,2-BROMOBENZOIC ACID,Koerner,Koerner,A8743,19630371,-,-,2.88,Log unit,,-,OC(=O)c1c(cccc1)Br,
OC(=O)C1=C(O)C=C(O)C=C1,89-86-1,R1509566,M11089,-,57,"2,4-Dihydroxybenzoic Acid",Koerner,Koerner,A8743,19630371,-,-,3.11,Log unit,,-,OC(=O)c1ccc(O)cc1O,
CC1=CC=C(O)C(=C1)C(O)=O,89-56-5,R1509567,M17916,-,58,2-HYDROXY-5-METHYLBENZOIC ACID,Koerner,Koerner,A8743,19630371,-,-,3.15,Log unit,,-,OC(=O)c1c(ccc(C)c1)O,
OC(=O)C1=C(O)C=CC(Br)=C1,89-55-4,R1509568,M4343,-,59,5-Bromo-2-hydroxybenzoic acid,Koerner,Koerner,A8743,19630371,-,-,2.66,Log unit,,-,OC(=O)c1cc(Br)ccc1O,
CC(=O)NC1=C(C=CC=C1)C(O)=O,89-52-1,R1509569,M9395,-,60,2-(Acetylamino)benzoic acid,Koerner,Koerner,A8743,19630371,-,-,3.4,Log unit,,-,OC(=O)c1c(NC(=O)C)cccc1,
COC1=CC(OC)=C(C=C1)C(O)=O,91-52-1,R1509570,M17979,-,61,"2,4-dimethyloxybenzoic acid",Koerner,Koerner,A8743,19630371,-,-,4.36,Log unit,,-,OC(=O)c1c(OC)cc(OC)cc1,
OC(=O)C1=C(NC2=CC=CC=C2)C=CC=C1,91-40-7,R1509571,M14456,-,62,2-(Phenylamino)benzoic acid,Koerner,Koerner,A8743,19630371,-,-,3.99,Log unit,,-,OC(=O)c1c(cccc1)Nc1ccccc1,
OC(=O)C1=C(O)C=C2C=CC=CC2=C1,92-70-6,R1509572,M18034,-,63,3-HYDROXY-2-NAPHTHALENECARBOXYLIC ACID,Koerner,Koerner,A8743,19630371,-,-,2.79,Log unit,,-,OC(=O)c1c(O)cc2c(cccc2)c1,
OC(=O)C1=C(O)C=CC(=C1)[N+]([O-])=O,96-97-9,R1509573,M8730,-,64,2-Hydroxy-5-nitrobenzoic acid,Koerner,Koerner,A8743,19630371,-,-,2.12,Log unit,,-,OC(=O)c1cc([N+](=O)[O-])ccc1O,
OC(=O)C1=C(Cl)C=C(C=C1)N(=O)=O,99-60-5,R1509574,M18292,-,65,2-CHLORO-4-NITROBENZOIC ACID,Koerner,Koerner,A8743,19630371,-,-,2.14,Log unit,,-,OC(=O)c1c(cc(N(=O)=O)cc1)Cl,
NC1=CC=CC=C1C(O)=O,118-92-3,R1509575,M10119,-,66,2-aminobenzoic acid,Koerner,Koerner,A8743,19630371,-,-,4.95,Log unit,,-,OC(=O)c1c(N)cccc1,
OC(=O)C1=CC=CC=C1Cl,118-91-2,R1509576,M4441,-,67,2-Chlorobenzoic Acid,Koerner,Koerner,A8743,19630371,-,-,2.89,Log unit,,-,OC(=O)c1ccccc1Cl,
CC1=CC=CC=C1C(O)=O,-,R1509577,M14460,-,68,2-Methylbenzoic acid,Koerner,Koerner,A8743,19630371,-,-,3.98,Log unit,,-,OC(=O)c1ccccc1C,
OC(=O)C1=C(C=C(C=C1N(=O)=O)N(=O)=O)N(=O)=O,129-66-8,R1509578,M19332,-,69,"2,4,6-TRINITROBENZOIC ACID",Koerner,Koerner,A8743,19630371,-,-,0.65,Log unit,,-,OC(=O)c1c(cc(cc1N(=O)=O)N(=O)=O)N(=O)=O,
NC1=C(Cl)C(=CC(Cl)=C1)C(O)=O,133-90-4,R1509579,M4052,-,70,"3-Amino-2,5-dichlorobenzoic acid",Koerner,Koerner,A8743,19630371,-,-,3.4,Log unit,,-,OC(=O)c1c(Cl)c(N)cc(Cl)c1,
OC(=O)C1=CC=CC(O)=C1O,303-38-8,R1509580,M19906,-,71,"2,3-DIHYDROXYBENZOIC ACID",Koerner,Koerner,A8743,19630371,-,-,2.91,Log unit,,-,OC(=O)c1cccc(O)c1O,
CCC1([C@H](C)CC(C)C)C(=O)NC(=O)NC1=O,-,R1321876,M663920,-,666,Barbituric acid,Koerner,charochkina,A4065,19961204,4,5,8.14,Log unit,,-,N1C(=O)C(C(=O)NC1=O)(C(CC(C)C)C)CC,
COC(=O)[C@@H]1[C@@H]2CC[C@H](C[C@@H]1OC(=O)C1=CC=CC=C1)N2C,-,R1321877,M663161,-,666,Benzoylecgonine methyl ester,Koerner,charochkina,A4065,19961204,4,6,8.7,Log unit,,-,N1(C2C(C(CC1CC2)OC(=O)c1ccccc1)C(=O)OC)C,
COC1=CC2=C(C=C1OC)[C@@]13CCN4CC5=CCO[C@@H]6CC(=O)N2[C@H]1[C@@H]6[C@@H]5C[C@H]34,-,R1321878,M663921,-,666,brucine,Koerner,charochkina,A4065,19961204,4,6,8.28,Log unit,,-,N12C3C4(C5N(C(=O)CC6C5C(C3)C(=CCO6)C1)c1c4cc(c(c1)OC)OC)CC2,
OC(O)=O,-,R1321879,M110683,-,62,Carbonic acid,Koerner,charochkina,A4065,19961204,-,-,6.352,Log unit,,-,OC(=O)O,
OC(O)=O,-,R1321880,M110683,-,62,Carbonic acid,Koerner,charochkina,A4065,19961204,-,-,10.39,Log unit,,-,OC(=O)O,
[H]OC(=O)C([H])([H])C([H])([H])[C@@]([H])(C([H])([H])[H])[C@@]1([H])C([H])([H])C([H])([H])[C@@]2([H])[C@]3([H])[C@]([H])(O[H])C([H])([H])[C@]4([H])C([H])([H])[C@]([H])(O[H])C([H])([H])C([H])([H])[C@]4(C([H])([H])[H])[C@@]3([H])C([H])([H])C([H])([H])[C@]12C([H])([H])[H],-,R1321881,M10053,-,666,chenodeoxycholic acid,Koerner,charochkina,A4065,19961204,4,6,5.03,Log unit,,-,OC(=O)CCC(C1C2(C(C3C(C4(C(CC(CC4)O)CC3O)C)CC2)CC1)C)C,
CN1CCN(CC1)[C@H](C1=CC=CC=C1)C1=CC=C(Cl)C=C1,-,R1321882,M663922,-,65,Chlorcyclizine,Koerner,charochkina,A4065,19961204,-,-,2.12,Log unit,,-,N1(C(c2ccc(cc2)Cl)c2ccccc2)CCN(CC1)C,
CN1CCN(CC1)[C@H](C1=CC=CC=C1)C1=CC=C(Cl)C=C1,-,R1321883,M663922,-,65,Chlorcyclizine,Koerner,charochkina,A4065,19961204,-,-,7.65,Log unit,,-,N1(CCN(C(c2ccc(cc2)Cl)c2ccccc2)CC1)C,
CN1CCN(CC1)C(C1=CC=CC=C1)C1=CC=CC=C1,-,R1321884,M17687,-,66,CYCLIZINE,Koerner,charochkina,A4065,19961204,-,-,2.16,Log unit,,-,N1(CCN(C(c2ccccc2)c2ccccc2)CC1)C,
CN1CCN(CC1)C(C1=CC=CC=C1)C1=CC=CC=C1,-,R1321885,M17687,-,66,CYCLIZINE,Koerner,charochkina,A4065,19961204,-,-,8.05,Log unit,,-,N1(C(c2ccccc2)c2ccccc2)CCN(CC1)C,
CC1(C)S[C@@H](N[C@H]1C(O)=O)[C@H](NC(=O)CC1=CC=CC=C1)C(O)=O,-,R1321886,M659527,-,666,Benzylpenicilloic acid,Koerner,charochkina,A4065,19961204,4,6,5.32,Log unit,,-,N1C(SC(C1C(=O)O)(C)C)C(NC(=O)Cc1ccccc1)C(=O)O,
CN(C)[C@H]1[C@@H]2C[C@H]3C(=C(O)[C@]2(O)C(=O)C(C(N)=O)=C1O)C(=O)C1=C(O)C=CC(Cl)=C1[C@@]3(C)O,-,R1321887,M15787,-,74,chlortetracycline,Koerner,charochkina,A4065,19961204,-,-,3.285,Log unit,,-,OC1=C(C(=O)C2(C(=C3C(=O)c4c(C(C3CC2C1N(C)C)(O)C)c(ccc4O)Cl)O)O)C(=O)N,
CN(C)[C@H]1[C@@H]2C[C@H]3C(=C(O)[C@]2(O)C(=O)C(C(N)=O)=C1O)C(=O)C1=C(O)C=CC(Cl)=C1[C@@]3(C)O,-,R1321888,M15787,-,74,chlortetracycline,Koerner,charochkina,A4065,19961204,-,-,7.435,Log unit,,-,N(C1C2C(C(=C3C(=O)c4c(C(C3C2)(O)C)c(ccc4O)Cl)O)(C(=O)C(=C1O)C(=O)N)O)(C)C,
CN(C)[C@H]1[C@@H]2C[C@H]3C(=C(O)[C@]2(O)C(=O)C(C(N)=O)=C1O)C(=O)C1=C(O)C=CC(Cl)=C1[C@@]3(C)O,-,R1321889,M15787,-,74,chlortetracycline,Koerner,charochkina,A4065,19961204,-,-,9.3,Log unit,,-,Oc1c2C(=O)C3=C(C4(C(=O)C(=C(C(C4CC3C(c2c(cc1)Cl)(O)C)N(C)C)O)C(=O)N)O)O,
CN(C)[C@H]1[C@@H]2[C@@H](O)[C@@H]3C(=C(O)[C@]2(O)C(=O)C(C(N)=O)=C1O)C(=O)C1=C(O)C=CC=C1[C@@]3(C)O,-,R1321890,M663923,-,75,oxytetracycline,Koerner,charochkina,A4065,19961204,-,-,3.27,Log unit,,-,OC1=C(C(=O)C2(C(=C3C(=O)c4c(cccc4C(C3C(C2C1N(C)C)O)(O)C)O)O)O)C(=O)N,
CN(C)[C@H]1[C@@H]2[C@@H](O)[C@@H]3C(=C(O)[C@]2(O)C(=O)C(C(N)=O)=C1O)C(=O)C1=C(O)C=CC=C1[C@@]3(C)O,-,R1321891,M663923,-,75,oxytetracycline,Koerner,charochkina,A4065,19961204,-,-,7.32,Log unit,,-,N(C1C2C(C3C(c4cccc(O)c4C(=O)C3=C(O)C2(C(=O)C(=C1O)C(=O)N)O)(O)C)O)(C)C,
CN(C)[C@H]1[C@@H]2[C@@H](O)[C@@H]3C(=C(O)[C@]2(O)C(=O)C(C(N)=O)=C1O)C(=O)C1=C(O)C=CC=C1[C@@]3(C)O,-,R1321892,M663923,-,75,oxytetracycline,Koerner,charochkina,A4065,19961204,-,-,9.11,Log unit,,-,Oc1cccc2c1C(=O)C1=C(C3(C(C(C1C2(O)C)O)C(C(=C(C3=O)C(=O)N)O)N(C)C)O)O,
[H][C@@]12C[C@@]3([H])C(=C(O)[C@]1(O)C(=O)C(C(N)=O)=C(O)[C@H]2N(C)C)C(=O)C1=C(O)C=CC=C1[C@@]3(C)O,-,R1321893,M7887,-,76,tetracycline,Koerner,charochkina,A4065,19961204,-,-,3.3,Log unit,,-,OC1=C(C(=O)C2(C(=C3C(=O)c4c(cccc4C(C3CC2C1N(C)C)(C)O)O)O)O)C(=O)N,
[H][C@@]12C[C@@]3([H])C(=C(O)[C@]1(O)C(=O)C(C(N)=O)=C(O)[C@H]2N(C)C)C(=O)C1=C(O)C=CC=C1[C@@]3(C)O,-,R1321894,M7887,-,76,tetracycline,Koerner,charochkina,A4065,19961204,-,-,7.68,Log unit,,-,N(C1C2CC3C(c4cccc(O)c4C(=O)C3=C(O)C2(C(=O)C(=C1O)C(=O)N)O)(C)O)(C)C,
[H][C@@]12C[C@@]3([H])C(=C(O)[C@]1(O)C(=O)C(C(N)=O)=C(O)[C@H]2N(C)C)C(=O)C1=C(O)C=CC=C1[C@@]3(C)O,-,R1321895,M7887,-,76,tetracycline,Koerner,charochkina,A4065,19961204,-,-,9.69,Log unit,,-,Oc1cccc2c1C(=O)C1=C(C3(C(CC1C2(C)O)C(C(=C(C3=O)C(=O)N)O)N(C)C)O)O,
NS(=O)(=O)C1=C(Cl)C=CC(=C1)[C@@]1(O)NC(=O)C2=C1C=CC=C2,-,R1321896,M519874,-,666,Chlorthalidone,Koerner,charochkina,A4065,19961204,4,6,9.355,Log unit,,-,NS(=O)(=O)c1cc(C2(NC(=O)c3c2cccc3)O)ccc1Cl,
OC(=O)CC(O)(CC(O)=O)C(O)=O,-,R1321897,M5805,-,79,citric acid,Koerner,charochkina,A4065,19961204,-,-,3.128,Log unit,,-,OC(=O)C(CC(=O)O)(CC(=O)O)O,
CCC[C@@H]1C[C@H](N(C)C1)C(=O)N[C@@H]([C@H](C)Cl)[C@H]1O[C@H](SC)[C@H](O)[C@@H](O)[C@H]1O,-,R1321898,M663924,-,666,Clindamycin,Koerner,charochkina,A4065,19961204,4,6,7.72,Log unit,,-,N1(C(C(=O)NC(C2OC(C(C(C2O)O)O)SC)C(Cl)C)CC(C1)CCC)C,
CN1CCC[C@H](C1)C(O)=O,-,R1321899,M663925,-,666,Dihydroarecaidine,Koerner,charochkina,A4065,19961204,4,6,9.7,Log unit,,-,N1(CC(C(=O)O)CCC1)C,
COC(=O)[C@@H]1CCCN(C)C1,-,R1321900,M663926,-,666,Dihydroarecaidine methyl ester,Koerner,charochkina,A4065,19961204,4,6,8.39,Log unit,,-,N1(CC(C(=O)OC)CCC1)C,
OCCN1CCN(CC\C=C2\C3=CC=CC=C3SC3=C2C=C(Cl)C=C3)CC1,-,R1321901,M15367,-,85,Clopenthixol,Koerner,charochkina,A4065,19961204,-,-,3.443,Log unit,,-,N1(CCN(CCC=C2c3c(Sc4c2cc(cc4)Cl)cccc3)CC1)CCO,
OCCN1CCN(CC\C=C2\C3=CC=CC=C3SC3=C2C=C(Cl)C=C3)CC1,-,R1321902,M15367,-,85,Clopenthixol,Koerner,charochkina,A4065,19961204,-,-,6.14,Log unit,,-,N1(CCC=C2c3c(Sc4c2cc(cc4)Cl)cccc3)CCN(CC1)CCO,
[H][C@@]12OC3=C(OC)C=CC4=C3[C@@]11CCN(C)[C@]([H])(C4)[C@]1([H])C=C[C@@H]2O,-,R1321903,M8201,-,666,Codeine,Koerner,charochkina,A4065,19961204,4,6,8.22,Log unit,,-,N1(C2C3C4(c5c(c(OC)ccc5C2)OC4C(O)C=C3)CC1)C,
COC1=C2O[C@H]3[C@@H](O)C=C[C@H]4[C@H]5CC(C=C1)=C2[C@@]34CCN5,-,R1321904,M51455,-,666,Norcodeine,Koerner,charochkina,A4065,19961204,4,6,9.23,Log unit,,-,N1C2C3C=CC(C4C3(c3c(c(ccc3C2)OC)O4)CC1)O,
COC1=C2O[C@H]3[C@@H](O)C=C[C@H]4[C@H]5CC(C=C1)=C2[C@@]34CCN5CCC#N,-,R1321905,M663927,-,666,"Norcodeine, N-(2-cyano)ethyl",Koerner,charochkina,A4065,19961204,4,6,5.68,Log unit,,-,N1(C2C3C=CC(C4Oc5c(OC)ccc(C2)c5C34CC1)O)CCC#N,
CC(=O)O[C@H](CC([O-])=O)C[N+](C)(C)C,-,R1321906,M110090,-,666,Deccyl carnitine,Koerner,charochkina,A4065,19961204,4,6,3.6,Log unit,,-,OC(=O)CC(OC(=O)C)C[N+](C)(C)C,
CCCC(=O)O[C@H](CC(O)=O)C[N+](C)(C)C,-,R1321907,M659578,-,666,Deccyl carnitine,Koerner,charochkina,A4065,19961204,4,6,3.56,Log unit,,-,OC(=O)CC(OC(=O)CCC)C[N+](C)(C)C,
CCCCCCCC(=O)O[C@H](CC(O)=O)C[N+](C)(C)C,-,R1321908,M659579,-,666,Deccyl carnitine,Koerner,charochkina,A4065,19961204,4,6,3.6,Log unit,,-,OC(=O)CC(OC(=O)CCCCCCC)C[N+](C)(C)C,
CCCCCCCCCC(=O)O[C@H](CC(O)=O)C[N+](C)(C)C,-,R1321909,M659580,-,666,Deccyl carnitine,Koerner,charochkina,A4065,19961204,4,6,3.65,Log unit,,-,OC(=O)CC(OC(=O)CCCCCCCCC)C[N+](C)(C)C,
CN(C)CCN1C2=CC=CC=C2N(C)C2=CC=CC=C2C1=O,-,R1321910,M9327,-,93,Dibenzepine,Koerner,charochkina,A4065,19961204,-,,3.451,Log unit,,-,N1(C)c2ccccc2C(=O)N(CCN(C)C)c2ccccc21,
CN(C)CCN1C2=CC=CC=C2N(C)C2=CC=CC=C2C1=O,-,R1321911,M9327,-,93,Dibenzepine,Koerner,charochkina,A4065,19961204,-,,8.275,Log unit,,-,N(CCN1C(=O)c2c(N(c3c1cccc3)C)cccc2)(C)C,
CCCCCCCC\C=C\CCCCCCCC(=O)OC[C@@H](CO[P@@](O)(=O)OCCN)OC(=O)CCCCCCC\C=C\CCCCCCCC,-,R1321912,M663928,-,99,"1,2-Dioleoylphosphatidylethano",Koerner,charochkina,A4065,19961204,-,-,7.55,Log unit,,-,NCCOP(=O)(OCC(COC(=O)CCCCCCCC=CCCCCCCCC)OC(=O)CCCCCCCC=CCCCCCCCC)O,
N[C@@H](CC1=CC=CC=C1)C(=O)N[C@H](CC1=CC=CC=C1)C(O)=O,-,R1321913,M659540,-,100,Phe-Phe,Koerner,charochkina,A4065,19961204,-,-,3.2,Log unit,,-,OC(=O)C(NC(=O)C(Cc1ccccc1)N)Cc1ccccc1,
N[C@@H](CC1=CC=CC=C1)C(=O)N[C@H](CC1=CC=CC=C1)C(O)=O,-,R1321914,M659540,-,100,Phe-Phe,Koerner,charochkina,A4065,19961204,-,-,7.18,Log unit,,-,NC(C(=O)NC(C(=O)O)Cc1ccccc1)Cc1ccccc1,
N[C@@H](CC1=CC=CC=C1)C(=O)N[C@H](CC1=CC=CC=C1)C(=O)N[C@H](CC1=CC=CC=C1)C(O)=O,-,R1321915,M659541,-,101,Phe-Phe-Phe,Koerner,charochkina,A4065,19961204,-,-,3.37,Log unit,,-,OC(=O)C(NC(=O)C(NC(=O)C(Cc1ccccc1)N)Cc1ccccc1)Cc1ccccc1,
N[C@@H](CC1=CC=CC=C1)C(=O)N[C@H](CC1=CC=CC=C1)C(=O)N[C@H](CC1=CC=CC=C1)C(O)=O,-,R1321916,M659541,-,101,Phe-Phe-Phe,Koerner,charochkina,A4065,19961204,-,-,7.04,Log unit,,-,NC(C(=O)NC(C(=O)NC(C(=O)O)Cc1ccccc1)Cc1ccccc1)Cc1ccccc1,
CCOC(=O)C1=C(O)C2=C(OC(\C=N\N3C[C@@H](CN4CCOCC4)OC3=O)=C2)N=C1,-,R1321917,M663929,-,666,ebifuramin,Koerner,charochkina,A4065,19961204,4,6,5.24,Log unit,,-,N1(CC2OC(=O)N(N=Cc3oc4c(c(c(C(=O)OCC)cn4)O)c3)C2)CCOCC1,
CCOC(=O)[C@H](CCC1=CC=CC=C1)N[C@@H](C)C(=O)N1CCC[C@@H]1C(O)=O,-,R1321918,M659543,-,103,enalapril,Koerner,charochkina,A4065,19961204,-,-,2.975,Log unit,,-,OC(=O)C1N(C(=O)C(NC(C(=O)OCC)CCc2ccccc2)C)CCC1,
CCOC(=O)[C@H](CCC1=CC=CC=C1)N[C@@H](C)C(=O)N1CCC[C@@H]1C(O)=O,-,R1321919,M659543,-,103,enalapril,Koerner,charochkina,A4065,19961204,-,-,5.36,Log unit,,-,N(C(C(=O)N1C(C(=O)O)CCC1)C)C(C(=O)OCC)CCc1ccccc1,
CSCC[C@H](NC(=O)[C@@H](CC1=CC=CC=C1)NC(=O)CNC(=O)CNC(=O)[C@H](N)CC1=CC=C(O)C=C1)C(O)=O,-,R1321920,M659544,-,104,Enkephalin,Koerner,charochkina,A4065,19961204,-,-,3.68,Log unit,,-,OC(=O)C(NC(=O)C(NC(=O)CNC(=O)CNC(=O)C(Cc1ccc(O)cc1)N)Cc1ccccc1)CCSC,
CSCC[C@H](NC(=O)[C@@H](CC1=CC=CC=C1)NC(=O)CNC(=O)CNC(=O)[C@H](N)CC1=CC=C(O)C=C1)C(O)=O,-,R1321921,M659544,-,104,Enkephalin,Koerner,charochkina,A4065,19961204,-,-,7.77,Log unit,,-,NC(C(=O)NCC(=O)NCC(=O)NC(C(=O)NC(C(=O)O)CCSC)Cc1ccccc1)Cc1ccc(O)cc1,
CSCC[C@H](NC(=O)[C@@H](CC1=CC=CC=C1)NC(=O)CNC(=O)CNC(=O)[C@H](N)CC1=CC=C(O)C=C1)C(O)=O,-,R1321922,M659544,-,104,Enkephalin,Koerner,charochkina,A4065,19961204,-,-,9.89,Log unit,,-,Oc1ccc(CC(C(=O)NCC(=O)NCC(=O)NC(C(=O)NC(C(=O)O)CCSC)Cc2ccccc2)N)cc1,
C[C@@H]1CCC2=CC(F)=CC3=C2[N]1=CC(C(O)=O)=[C]3=O,-,R1321923,M2175,-,666,Flumequine,Koerner,charochkina,A4065,19961204,4,6,6.38,Log unit,,-,OC(=O)c1cn2c3c(c1=O)cc(cc3CCC2C)F,
NS(=O)(=O)c1cc(C(O)=O)c(NCc2ccco2)cc1Cl,-,R1321924,M14541,-,110,Furosemide,Koerner,charochkina,A4065,19961204,-,-,3.65,Log unit,,-,OC(=O)c1cc(S(=O)(=O)N)c(cc1NCc1occc1)Cl,
NS(=O)(=O)c1cc(C(O)=O)c(NCc2ccco2)cc1Cl,-,R1321925,M14541,-,110,Furosemide,Koerner,charochkina,A4065,19961204,-,-,10.4,Log unit,,-,NS(=O)(=O)c1cc(c(NCc2occc2)cc1Cl)C(=O)O,
OC[C@@H](O)[C@@H](O)[C@H](O)[C@@H](O)C(O)=O,-,R1321926,M66754,-,666,Gluconic acid,Koerner,charochkina,A4065,19961204,4,6,3.62,Log unit,,-,OC(=O)C(C(C(C(O)CO)O)O)O,
N[C@H]1[C@H](O)O[C@H](COP(O)(O)=O)[C@@H](O)[C@@H]1O,-,R1321927,M659545,-,113,Glucosamine-6-phosphate,Koerner,charochkina,A4065,19961204,-,-,6.1,Log unit,,-,OP(=O)(OCC1OC(C(C(C1O)O)N)O)O,
N[C@H]1[C@H](O)O[C@H](COP(O)(O)=O)[C@@H](O)[C@@H]1O,-,R1321928,M659545,-,113,Glucosamine-6-phosphate,Koerner,charochkina,A4065,19961204,-,-,8.14,Log unit,,-,NC1C(C(C(OC1O)COP(=O)(O)O)O)O,
COC1=CC(=CC(OC)=C1OC)C(=O)OCCCN(C)CCN(C)CCCOC(=O)C1=CC(OC)=C(OC)C(OC)=C1,-,R1321929,M17061,-,116,Hexobendine,Koerner,charochkina,A4065,19961204,-,-,4.52,Log unit,,-,N(CCN(CCCOC(=O)c1cc(c(OC)c(c1)OC)OC)C)(C)CCCOC(=O)c1cc(c(c(c1)OC)OC)OC,
COC1=CC(=CC(OC)=C1OC)C(=O)OCCCN(C)CCN(C)CCCOC(=O)C1=CC(OC)=C(OC)C(OC)=C1,-,R1321930,M17061,-,116,Hexobendine,Koerner,charochkina,A4065,19961204,-,-,8.47,Log unit,,-,N(CCCOC(=O)c1cc(c(OC)c(c1)OC)OC)(CCN(C)CCCOC(=O)c1cc(c(c(c1)OC)OC)OC)C,
NCCC1=CNC=N1,-,R1321931,M7590,-,117,Histamine,Koerner,charochkina,A4065,19961204,-,-,5.784,Log unit,,-,n1c(c[nH]c1)CCN,
NCCC1=CNC=N1,-,R1321932,M7590,-,117,Histamine,Koerner,charochkina,A4065,19961204,-,-,9.756,Log unit,,-,NCCc1c[nH]cn1,
NCCC1=C(I)NC=N1,-,R1321933,M659548,-,118,"Histamine, monoiodo",Koerner,charochkina,A4065,19961204,-,-,4.06,Log unit,,-,n1c(c([nH]c1)I)CCN,
NCCC1=C(I)NC=N1,-,R1321934,M659548,-,118,"Histamine, monoiodo",Koerner,charochkina,A4065,19961204,-,-,9.2,Log unit,,-,NCCc1c([nH]cn1)I,
NCCC1=C(I)NC=N1,-,R1321935,M659548,-,118,"Histamine, monoiodo",Koerner,charochkina,A4065,19961204,-,-,11.88,Log unit,,-,[nH]1c(c(CCN)nc1)I,
NCCC1=C(I)NC(I)=N1,-,R1321936,M659549,-,119,"Histamine, diiodo",Koerner,charochkina,A4065,19961204,-,-,2.31,Log unit,,-,n1c(c([nH]c1I)I)CCN,
NCCC1=C(I)NC(I)=N1,-,R1321937,M659549,-,119,"Histamine, diiodo",Koerner,charochkina,A4065,19961204,-,-,8.2,Log unit,,-,NCCc1c([nH]c(n1)I)I,
NCCC1=C(I)NC(I)=N1,-,R1321938,M659549,-,119,"Histamine, diiodo",Koerner,charochkina,A4065,19961204,-,-,10.11,Log unit,,-,[nH]1c(c(CCN)nc1I)I,
NS(=O)(=O)C1=CC2=C(NCNS2(=O)=O)C=C1Cl,-,R1321939,M5416,-,121,Hydrochlorothiazide,Koerner,charochkina,A4065,19961204,-,-,8.78,Log unit,,-,NS(=O)(=O)c1c(cc2c(c1)S(=O)(=O)NCN2)Cl,
NS(=O)(=O)C1=CC2=C(NCNS2(=O)=O)C=C1Cl,-,R1321940,M5416,-,121,Hydrochlorothiazide,Koerner,charochkina,A4065,19961204,-,-,10.13,Log unit,,-,N1CNc2cc(c(S(=O)(=O)N)cc2S1(=O)=O)Cl,
CC(C)CC1=CC=C(C=C1)[C@@H](C)C(O)=O,-,R1321941,M3743,-,666,Ibuprofen,Koerner,charochkina,A4065,19961204,4,6,4.44,Log unit,,-,OC(=O)C(c1ccc(CC(C)C)cc1)C,
CC(C)NC[C@@H](O)C1=CC(O)=C(O)C=C1,-,R1321942,M546935,-,123,isoproterenol,Koerner,charochkina,A4065,19961204,-,-,8.65,Log unit,,-,N(CC(c1ccc(c(c1)O)O)O)C(C)C,
CC(C)NC[C@@H](O)C1=CC(O)=C(O)C=C1,-,R1321943,M546935,-,123,isoproterenol,Koerner,charochkina,A4065,19961204,-,-,10.07,Log unit,,-,Oc1c(ccc(C(CNC(C)C)O)c1)O,