"SMILES","CASRN","RECORDID","MOLECULEID","EXTERNALID","N","NAME","NAME","INTRODUCER","MODIFIER","ARTICLEID","PUBMEDID","PAGE","TABLE","pKa (smiles as ob. cond.) {measured}","UNIT {pKa (smiles as ob. cond.)}","pKa (smiles as ob. cond.) {measured, converted}","UNIT {pKa (smiles as ob. cond.)}","Ionizable centre (smiles)","IC group detected","AtomNR of IC","groupsAndICs","IC smiles given","IC group given","Temperature","UNIT {Temperature}","MultiGroupDetection","COMMENTS","INCHI_KEY"
"NC1=CC2=NC3=CC=CC=C3C=C2C=C1","-","R946593","M3208","-","-","3-aminoacridine","-","Koerner","charochkina","A5793","-","-","-","8.0","Log unit","8.0","Log unit","n1c2ccccc2cc2c1cc(N)cc2","4","","{n=[4], nr2=[8]}","c(ccc1nc2cc3N)cc1cc2cc3","n","25.0","?C","","-","GHCKERHPOQWERJ-UHFFFAOYSA"
"NC1=CC=CC2=CC3=CC=CC=C3N=C12","-","R946594","M9470","-","-","4-aminoacridine","-","Koerner","charochkina","A5793","-","-","-","4.36","Log unit","4.36","Log unit","n1c2ccccc2cc2c1c(ccc2)N","4","","{n=[4], nr2=[8]}","c(ccc1nc2c(c3)N)cc1cc2cc3","n","25.0","?C","","-","QWAGALBSTFENEE-UHFFFAOYSA"
"NC1=C2C=CC=CC2=NC2=CC=CC=C12","-","R946595","M12974","-","-","9-AMINOACRIDINE","-","Koerner","charochkina","A5793","-","-","-","9.95","Log unit","9.95","Log unit","n1c2ccccc2c(N)c2c1cccc2","4","","{n=[4], nr2=[11]}","c(ccc1nc2cc3)cc1c(N)c2cc3","n","25.0","?C","","-","XJGFWWJLMVZSIG-UHFFFAOYSA"
"NC1=CC2=NC3=C(C=C(C=C3)C([O-])=O)C=C2C=C1","-","R946596","M1106944","-","-","3-amino-7-carboxyacridine","-","Koerner","charochkina","A5793","-","-","-","8.0","Log unit","8.0","Log unit","n1c2c(ccc(c2)N)cc2cc(ccc12)C(=O)[O-]","14","","{n=[14], nr2=[17]}","c(cc(cc(cc(c1)C(=O)[O-1])c2c1)c3n2)c(c3)N","n","25.0","?C","","-","BMOHFMNHDJZPMB-UHFFFAOYSA"
"NC1=CC2=C(C=C1)C=C1C=CC(Cl)=CC1=N2","-","R946597","M35741","-","-","3-amino-6-chloroacridine","-","Koerner","charochkina","A5793","-","-","-","7.22","Log unit","7.22","Log unit","n1c2cc(Cl)ccc2cc2c1cc(cc2)N","4","","{n=[4], nr2=[9]}","Cl-c(cc(nc(cc(c1)N)c2c1)c3c2)cc3","n","25.0","?C","","-","OCESZSGMAAGZGO-UHFFFAOYSA"
"NC1=CC2=NC3=CC=C(Cl)C=C3C=C2C=C1","-","R946598","M1106945","-","-","3-amino-7-chloroacridine","-","Koerner","charochkina","A5793","-","-","-","6.91","Log unit","6.91","Log unit","n1c2ccc(Cl)cc2cc2c1cc(N)cc2","5","","{n=[5], nr2=[9]}","Cl-c(ccc1nc2cc3N)cc1cc2cc3","n","25.0","?C","","-","RCUYJUQAOKVDKZ-UHFFFAOYSA"
"NC1=CC2=C(C=C1)C(Cl)=C1C=CC=CC1=N2","-","R946599","M246077","-","-","3-amino-9-chloroacridine","-","Koerner","charochkina","A5793","-","-","-","6.7","Log unit","6.7","Log unit","n1c2c(c(Cl)c3ccc(N)cc13)cccc2","8","","{n=[8], nr2=[13]}","Cl-c(c(ccc1)c(c1)n2)c(ccc3N)c2c3","n","25.0","?C","","-","VUZMIFMWXDKGLV-UHFFFAOYSA"
"NC1=C2C(O)=CC=CC2=NC2=CC=CC=C12","-","R946600","M1107330","-","-","9-amino-1-hydroxyacridine","-","Koerner","charochkina","A5793","-","-","-","5.785","Log unit","5.785","Log unit","Oc1c2c(c3ccccc3nc2ccc1)N","15","","{n=[4], nr2=[11], oh=[15]}","c(ccc1nc2cc3)cc1c(N)c2c(c3)O","oh","25.0","?C","","-","GQVZAMDJPPXZMH-UHFFFAOYSA"
"NC1=C2C=CC(O)=CC2=NC2=CC=CC=C12","-","R946601","M35742","-","-","9-amino-3-hydroxyacridine","-","Koerner","charochkina","A5793","-","-","-","6.885","Log unit","6.885","Log unit","Oc1cc2nc3ccccc3c(N)c2cc1","8","","{n=[4], nr2=[12], oh=[8]}","c(ccc1nc2cc3O)cc1c(N)c2cc3","oh","25.0","?C","","-","VRPPSLVVOJJJPC-UHFFFAOYSA"
"COC(=O)C1=CC2=C(C=C1)N=C1C=C(N)C=CC1=C2","-","R946602","M1106946","-","-","3-amino-7-methoxycarbonylacridine","-","Koerner","charochkina","A5793","-","-","-","7.1","Log unit","7.1","Log unit","n1c2c(ccc(c2)N)cc2cc(ccc12)C(=O)OC","15","","{n=[15], nr2=[18]}","c(cc(cc(cc(c1)C(=O)OC)c2c1)c3n2)c(c3)N","n","25.0","?C","","-","HDCMPRICNKUDDN-UHFFFAOYSA"
"NC1=C2C=CC=CC2=NC2=CC(Cl)=CC=C12","-","R946603","M28211","-","-","9-amino-3-chloroacridine","-","Koerner","charochkina","A5793","-","-","-","9.29","Log unit","9.29","Log unit","n1c2cc(Cl)ccc2c(N)c2ccccc12","12","","{n=[12], nr2=[6]}","Cl-c(ccc1c(N)c2cc3)cc1nc2cc3","n","25.0","?C","","-","IRSNBSGPKPZUDV-UHFFFAOYSA"
"COC1=CC2=C(C=C1)N=C1C=C(Cl)C=CC1=C2N","-","R946604","M28345","-","-","9-amino-3-chloro-7-methoxyacridine","-","Koerner","charochkina","A5793","-","-","-","8.94","Log unit","8.94","Log unit","n1c2cc(ccc2c(c2cc(ccc12)OC)N)Cl","6","","{n=[6], nr2=[16]}","c1cc(Cl)cc2nc3ccc(OC)cc3c(N)c12","n","25.0","?C","","-","IHHSSHCBRVYGJX-UHFFFAOYSA"
"COC1=CC2=C(N)C3=CC=CC=C3N=C2C=C1","-","R946605","M57783","-","-","9-amino-2-methoxyacridine","-","Koerner","charochkina","A5793","-","-","-","9.61","Log unit","9.61","Log unit","n1c2ccccc2c(N)c2c1ccc(c2)OC","4","","{n=[4], nr2=[11]}","c(ccc1nc2cc3)cc1c(N)c2cc3OC","n","25.0","?C","","-","MPQHRPVQJUEINF-UHFFFAOYSA"
"CC1=C2N=C3C(N)=CC=CC3=CC2=CC=C1","-","R946606","M477378","-","-","4-amino-5-methylacridine","-","Koerner","charochkina","A5793","-","-","-","3.9","Log unit","3.9","Log unit","n1c2c(cccc2cc2c1c(ccc2)N)C","5","","{n=[5], nr2=[9]}","c(cc(C)c1nc2c(c3)N)cc1cc2cc3","n","25.0","?C","","-","ZFZRVLUIIOMQGO-UHFFFAOYSA"
"CC1=CC=CC2=C(N)C3=CC=CC=C3N=C12","-","R946607","M35738","-","-","9-amino-4-methylacridine","-","Koerner","charochkina","A5793","-","-","-","10.24","Log unit","10.24","Log unit","n1c2ccccc2c(N)c2c1c(ccc2)C","4","","{n=[4], nr2=[12]}","c(ccc1nc2c(c3)C)cc1c(N)c2cc3","n","25.0","?C","","-","DQZVUDZSBQMLJC-UHFFFAOYSA"
"NC1=C2CCCCC2=NC2=CC=CC=C12","-","R946608","M13615","-","-","9-amino-1,2,3,4-tetrahydroacridine","-","Koerner","charochkina","A5793","-","-","-","9.95","Log unit","9.95","Log unit","n1c2ccccc2c(N)c2c1CCCC2","4","","{n=[4], nr2=[11]}","c(ccc1nc2CC3)cc1c(N)c2CC3","n","25.0","?C","","-","YLJREFDVOIBQDA-UHFFFAOYSA"
"[O-]C(=O)C1=CC2=CC3=CC=CC=C3N=C2C=C1","-","R946609","M1106947","-","-","2-carboxyacridine","-","Koerner","charochkina","A5793","-","-","-","5.4","Log unit","5.4","Log unit","n1c2ccccc2cc2c1ccc(c2)C(=O)[O-]","4","","{n=[4]}","c(ccc1nc2cc3)cc1cc2cc3C(=O)[O-1]","n","25.0","?C","","-","ZCIXDWOBWIAUNV-UHFFFAOYSA"
"OC(=O)C1CCC2[NH2+]C3CCCCC3CC2C1","-","R946610","M1107331","-","-","2-carboxyacridine","-","Koerner","charochkina","A5793","-","-","-","2.9","Log unit","2.9","Log unit","OC(=O)C1[CH]C2[CH]C3[CH][CH][CH][CH]C3[NH2+]C2[CH][CH]1","16","","{co2h=[16]}","c(ccc1[n+1]c2cc3)cc1cc2cc3C(=O)O","co2h","25.0","?C","","-","OTSJNLNCENLHIQ-UHFFFAOYSA"
"[O-]C(=O)C1=CC=CC2=CC3=CC=CC=C3N=C12","-","R946611","M1106948","-","-","4-carboxyacridine","-","Koerner","charochkina","A5793","-","-","-","7.7","Log unit","7.7","Log unit","n1c2ccccc2cc2c1c(ccc2)C(=O)[O-]","4","","{n=[4]}","c(ccc1nc2c(c3)C(=O)[O-1])cc1cc2cc3","n","25.0","?C","","-","NBIUCDPMOWCGIG-UHFFFAOYSA"
"OC(=[O-])C1=C2C=CC=CC2=NC2=CC=CC=C12","-","R946612","M1106949","-","-","9-carboxyacridine","-","Koerner","charochkina","A5793","-","-","-","5.0","Log unit","5.0","Log unit","n1c2ccccc2c(c2c1cccc2)C(=[O-])O","4","","{co2h=[16], n=[4]}","c(ccc1nc2cc3)cc1c(c2cc3)C(=[O-1])O","n","25.0","?C","","-","SWCFTEPXZKZDID-UHFFFAOYSA"
"NC1=CC2=C(C=C1)N=C1C=C(N)C=CC1=C2","-","R946613","M24179","-","-","2,6-diaminoacrdine","-","Koerner","charochkina","A5793","-","-","-","8.06","Log unit","8.06","Log unit","n1c2c(ccc(c2)N)cc2cc(ccc12)N","12","","{n=[12], nr2=[8, 15]}","c(cc(cc(cc(c1)N)c2c1)c3n2)c(c3)N","n","25.0","?C","","-","AXNLREBQOMGJMQ-UHFFFAOYSA"
"NC1=CC2=CC3=C(C=CC(N)=C3)N=C2C=C1","-","R946614","M44123","-","-","2,7-Diaminoacridine","-","Koerner","charochkina","A5793","-","-","-","6.14","Log unit","6.14","Log unit","n1c2ccc(cc2cc2c1ccc(N)c2)N","3","","{n=[3], nr2=[8, 15]}","c(cc(nc(ccc1N)c2c1)c3c2)c(c3)N","n","25.0","?C","","-","OYZJQXIQTJRRCG-UHFFFAOYSA"
"NC1=CC2=NC3=C(C=CC(N)=C3)C=C2C=C1","-","R946615","M12187","-","-","3,6-Diaminoacridine","-","Koerner","charochkina","A5793","-","-","-","9.625","Log unit","9.625","Log unit","n1c2c(ccc(c2)N)cc2ccc(N)cc12","12","","{n=[12], nr2=[8, 15]}","c(cc(cc(ccc1N)c2c1)c3n2)c(c3)N","n","25.0","?C","","-","WDVSHHCDHLJJJR-UHFFFAOYSA"
"NC1=CC2=CC3=C(C=C(N)C=C3)N=C2C=C1","-","R946616","M24179","-","-","3,7-diaminoacridine","-","Koerner","charochkina","A5793","-","-","-","8.11","Log unit","8.11","Log unit","n1c2ccc(cc2cc2c1cc(cc2)N)N","3","","{n=[3], nr2=[8, 15]}","c(cc(nc(cc(c1)N)c2c1)c3c2)c(c3)N","n","25.0","?C","","-","AXNLREBQOMGJMQ-UHFFFAOYSA"
"NC1=CC2=NC3=CC=CC=C3C(N)=C2C=C1","-","R946617","M35736","-","-","3,9-Diaminoacridine","-","Koerner","charochkina","A5793","-","-","-","11.46","Log unit","11.46","Log unit","n1c2ccccc2c(N)c2c1cc(N)cc2","4","","{n=[4], nr2=[8, 12]}","c(ccc1nc2cc3N)cc1c(N)c2cc3","n","25.0","?C","","-","AMOPBNMABDFREG-UHFFFAOYSA"
"NC1=CC=CC2=CC3=CC=CC(N)=C3N=C12","-","R946618","M244226","-","-","4,5-diaminoacridine","-","Koerner","charochkina","A5793","-","-","-","2.55","Log unit","2.55","Log unit","n1c2c(cccc2cc2c1c(ccc2)N)N","5","","{n=[5], nr2=[3, 9]}","c(cc(N)c1nc2c(c3)N)cc1cc2cc3","n","25.0","?C","","-","URHUZZRZASOLKY-UHFFFAOYSA"
"CC1=CC=CC2=CC3=CC=CC(C)=C3N=C12","-","R946619","M1106950","-","-","4,5-dimethylacridine","-","Koerner","charochkina","A5793","-","-","-","4.51","Log unit","4.51","Log unit","n1c2c(cccc2cc2c1c(ccc2)C)C","5","","{n=[5]}","c(cc(C)c1nc2c(c3)C)cc1cc2cc3","n","25.0","?C","","-","PBHLPNNLGFOKEQ-UHFFFAOYSA"
"OC1=CC=CC2=NC3=CC=CC=C3C=C12","-","R946620","M1106951","-","-","1-hydroxyacridine","-","Koerner","charochkina","A5793","-","-","-","5.35","Log unit","5.35","Log unit","n1c2ccccc2cc2c1cccc2O","4","","{n=[4], oh=[14]}","c(ccc1nc2cc3)cc1cc2c(c3)O","n","25.0","?C","","-","XIVOUNPJCNJBPR-UHFFFAOYSA"
"OC1=CC2=CC3=CC=CC=C3N=C2C=C1","-","R946621","M31686","-","-","2-Hydroxyacridine","-","Koerner","charochkina","A5793","-","-","-","5.22","Log unit","5.22","Log unit","n1c2ccccc2cc2c1ccc(c2)O","4","","{n=[4], oh=[14]}","c(ccc1nc2cc3)cc1cc2cc3O","n","25.0","?C","","-","VUZCWTUAXNDZSX-UHFFFAOYSA"
"OC1=CC2=CC3=CC=CC=C3N=C2C=C1","-","R946622","M31686","-","-","2-Hydroxyacridine","-","Koerner","charochkina","A5793","-","-","-","8.6","Log unit","8.6","Log unit","Oc1cc2cc3ccccc3nc2cc1","14","","{n=[4], oh=[14]}","c(ccc1nc2cc3)cc1cc2cc3O","oh","25.0","?C","","-","VUZCWTUAXNDZSX-UHFFFAOYSA"
"OC1=CC=CC2=CC3=CC=CC=C3N=C12","-","R946623","M117525","-","-","4-hydroxyacridine","-","Koerner","charochkina","A5793","-","-","-","5.07","Log unit","5.07","Log unit","n1c2ccccc2cc2c1c(ccc2)O","4","","{n=[4], oh=[8]}","c(ccc1nc2c(c3)O)cc1cc2cc3","n","25.0","?C","","-","HOYZEVWRZVPHEL-UHFFFAOYSA"
"OC1=CC=CC2=CC3=CC=CC=C3N=C12","-","R946624","M117525","-","-","4-hydroxyacridine","-","Koerner","charochkina","A5793","-","-","-","9.7","Log unit","9.7","Log unit","Oc1c2nc3ccccc3cc2ccc1","8","","{n=[4], oh=[8]}","c(ccc1nc2c(c3)O)cc1cc2cc3","oh","15.0","?C","","-","HOYZEVWRZVPHEL-UHFFFAOYSA"
"COC1=CC2=CC3=CC=CC=C3N=C2C=C1","-","R946625","M57748","-","-","2-methoxyacridine","-","Koerner","charochkina","A5793","-","-","-","5.47","Log unit","5.47","Log unit","n1c2ccccc2cc2c1ccc(c2)OC","4","","{n=[4]}","c(ccc1nc2cc3)cc1cc2cc3OC","n","25.0","?C","","-","NOIQZLIGXCQSEV-UHFFFAOYSA"
"COC1=CC=CC2=CC3=CC=CC=C3N=C12","-","R946626","M1106952","-","-","4-methoxyacridine","-","Koerner","charochkina","A5793","-","-","-","5.26","Log unit","5.26","Log unit","n1c2ccccc2cc2c1c(ccc2)OC","4","","{n=[4]}","c(ccc1nc2c(c3)OC)cc1cc2cc3","n","25.0","?C","","-","BPVTYXRNFNUPSR-UHFFFAOYSA"
"COC(=O)C1=C2C=CC=CC2=NC2=CC=CC=C12","-","R946627","M29931","-","-","9-methoxycarbonylacridine","-","Koerner","charochkina","A5793","-","-","-","3.41","Log unit","3.41","Log unit","n1c2ccccc2c(c2c1cccc2)C(=O)OC","4","","{n=[4]}","c(ccc1nc2cc3)cc1c(c2cc3)C(=O)OC","n","25.0","?C","","-","PGWHWYBRRVQFCI-UHFFFAOYSA"
"CCN(CC)CCCC(C)NC1=CC=NC2=C1C=CC(Br)=C2","-","R946428","M478405","-","-","7-bromo-4-(4-diethylamino-1-methyl)butylaminoquinoline","-","Koerner","charochkina","A5793","-","-","-","8.12","Log unit","8.12","Log unit","n1c2cc(Br)ccc2c(cc1)NC(CCCN(CC)CC)C","4","","{n=[4], nr2=[9, 14]}","Br-c(cc(ncc1)c2c1NC(CCCN(CC)CC)C)cc2","n","25.0","?C","","-","GDCDHNUYXXZRKA-UHFFFAOYSA"
"OC1=CC=C(Br)C2=C1N=CC=C2","-","R946429","M24890","-","-","5-Bromo-8-hydroxyquinoline","-","Koerner","charochkina","A5793","-","-","-","3.67","Log unit","3.67","Log unit","n1c2c(c(Br)ccc2O)ccc1","11","","{n=[11], oh=[5]}","Br-c(ccc1O)c(ccc2)c1n2","n","25.0","?C","","-","WIIUANWSGSTCLG-UHFFFAOYSA"
"OC1=CC=C(Br)C2=C1N=CC=C2","-","R946430","M24890","-","-","5-Bromo-8-hydroxyquinoline","-","Koerner","charochkina","A5793","-","-","-","9.02","Log unit","9.02","Log unit","Oc1ccc(Br)c2cccnc12","5","","{n=[11], oh=[5]}","Br-c(ccc1O)c(ccc2)c1n2","oh","25.0","?C","","-","WIIUANWSGSTCLG-UHFFFAOYSA"
"CC1=NC2=C(O)C(Br)=CC(=C2C=C1)S([O-])(=O)=O","-","R946431","M1106887","-","-","7-bromo-8-hydroxy-2-methyl-5-sulphoquinoline","-","Koerner","charochkina","A5793","-","-","-","3.32","Log unit","3.32","Log unit","n1c2c(c(Br)cc(S(=O)(=O)[O-])c2ccc1C)O","14","","{n=[14], oh=[12]}","Br-c(cc(S(=O)(=O)[O-1])c1cc2)c(O)c1nc2C","n","25.0","?C","","-","RCNMOZPMVFUXCU-UHFFFAOYSA"
"CC1=NC2=C(O)C(Br)=CC(=C2C=C1)S([O-])(=O)=O","-","R946432","M1106887","-","-","7-bromo-8-hydroxy-2-methyl-5-sulphoquinoline","-","Koerner","charochkina","A5793","-","-","-","7.96","Log unit","7.96","Log unit","Oc1c(Br)cc(S(=O)(=O)[O-])c2ccc(nc12)C","12","","{n=[14], oh=[12]}","Br-c(cc(S(=O)(=O)[O-1])c1cc2)c(O)c1nc2C","oh","25.0","?C","","-","RCNMOZPMVFUXCU-UHFFFAOYSA"
"SC1CCC(Br)C2CCC[NH2+]C12","-","R946433","M1107304","-","-","5-bromo-8-mercaptoquinoline","-","Koerner","charochkina","A5793","-","-","-","1.43","Log unit","1.43","Log unit","SC1[CH][CH]C(Br)C2[CH][CH][CH][NH2+]C12","5","","{sh=[5]}","Br-c(ccc1S)c(ccc2)c1[n+1]2","sh","25.0","?C","","-","AGPWFQUMSDPKGD-UHFFFAOYSA"
"[S-]C1=CC=C(Br)C2=C1N=CC=C2","-","R946434","M1106888","-","-","5-bromo-8-mercaptoquinoline","-","Koerner","charochkina","A5793","-","-","-","7.3","Log unit","7.3","Log unit","n1c2c(c(Br)ccc2[S-])ccc1","11","","{n=[11]}","Br-c(ccc1[S-1])c(ccc2)c1n2","n","25.0","?C","","-","DGOLQOSHPPSQOR-UHFFFAOYSA"
"SC1CC(Br)CC2CCC[NH2+]C12","-","R946435","M1107305","-","-","6-bromo-8-mercaptoquinoline","-","Koerner","charochkina","A5793","-","-","-","2.22","Log unit","2.22","Log unit","SC1[CH]C(Br)[CH]C2C1[NH2+][CH][CH][CH]2","4","","{sh=[4]}","Br-c(cc(S)c1[n+1]c2)cc1cc2","sh","25.0","?C","","-","VSORNLYGPJTGQR-UHFFFAOYSA"
"CSC1=CC=CC2=CC(Br)=CN=C12","-","R946436","M1106889","-","-","3-bromo-8-methylthioquinoline","-","Koerner","charochkina","A5793","-","-","-","2.44","Log unit","2.44","Log unit","n1cc(Br)cc2c1c(SC)ccc2","3","","{n=[3]}","Br-c(cnc1c(SC)c2)cc1cc2","n","25.0","?C","","-","ZDWZCTKYQRBFQD-UHFFFAOYSA"
"CSC1=CC=C(Br)C2=C1N=CC=C2","-","R946437","M1106890","-","-","5-bromo-8-methylthioquinoline","-","Koerner","charochkina","A5793","-","-","-","2.25","Log unit","2.25","Log unit","n1c2c(c(Br)ccc2SC)ccc1","12","","{n=[12]}","Br-c(ccc1SC)c(ccc2)c1n2","n","25.0","?C","","-","DUCFVVVGDVEAHD-UHFFFAOYSA"
"OC(=O)C1CCC2CCCCC2[NH2+]1","-","R946438","M1107306","-","-","2-Carboxyquinoline","-","Koerner","charochkina","A5793","-","-","-","1.0","Log unit","1.0","Log unit","OC(=O)C1[NH2+]C2[CH][CH][CH][CH]C2[CH][CH]1","12","","{co2h=[12]}","c(ccc1cc2)cc1[n+1]c2C(=O)O","co2h","25.0","?C","","-","DIWCUPFNJXAUAE-UHFFFAOYSA"
"[O-]C(=O)C1=NC2=CC=CC=C2C=C1","-","R946439","M18052","-","-","2-Carboxyquinoline","-","Koerner","charochkina","A5793","-","-","-","4.8","Log unit","4.8","Log unit","n1c2ccccc2ccc1C(=O)[O-]","8","","{n=[8]}","c(ccc1cc2)cc1nc2C(=O)[O-1]","n","25.0","?C","","-","LOAUVZALPPNFOQ-UHFFFAOYSA"
"[O-]C(=O)C1=CC2=C(C=C1)N=CC=C2","-","R946440","M32500","-","-","6-carboxyquinoline","-","Koerner","charochkina","A5793","-","-","-","4.8","Log unit","4.8","Log unit","n1cccc2c1ccc(C(=O)[O-])c2","0","","{n=[0]}","n(ccc1)c(ccc2C(=O)[O-1])c1c2","n","25.0","?C","","-","VXGYRCVTBHVXMZ-UHFFFAOYSA"
"OC(=O)C1CCCC2CCC[NH2+]C12","-","R946441","M1107307","-","-","8-Carboxyquinoline","-","Koerner","charochkina","A5793","-","-","-","1.82","Log unit","1.82","Log unit","OC(=O)C1C2[NH2+][CH][CH][CH]C2[CH][CH][CH]1","12","","{co2h=[12]}","[n+1](ccc1)c(c1cc2)c(c2)C(=O)O","co2h","25.0","?C","","-","DXSDEPIBCSGING-UHFFFAOYSA"
"[O-]C(=O)C1=CC=CC2=C1N=CC=C2","-","R946442","M17814","-","-","8-Carboxyquinoline","-","Koerner","charochkina","A5793","-","-","-","6.8","Log unit","6.8","Log unit","n1cccc2c1c(ccc2)C(=O)[O-]","0","","{n=[0]}","n(ccc1)c(c1cc2)c(c2)C(=O)[O-1]","n","25.0","?C","","-","QRDZFPUVLYEQTA-UHFFFAOYSA"
"OC1=CC=C(C([O-])=O)C2=C1N=CC=C2","-","R946443","M147583","-","-","5-carboxy-8-hydroxyquinoline","-","Koerner","charochkina","A5793","-","-","-","9.32","Log unit","9.32","Log unit","Oc1c2ncccc2c(cc1)C(=O)[O-]","8","","{n=[0], oh=[8]}","n(ccc1)c(c(cc2)O)c1c2C(=O)[O-1]","oh","25.0","?C","","-","JGRPKOGHYBAVMW-UHFFFAOYSA"
"OC1=CC=C(C([O-])=O)C2=C1N=CC=C2","-","R946444","M147583","-","-","5-carboxy-8-hydroxyquinoline","-","Koerner","charochkina","A5793","-","-","-","4.8","Log unit","4.8","Log unit","n1cccc2c1c(ccc2C(=O)[O-])O","0","","{n=[0], oh=[8]}","n(ccc1)c(c(cc2)O)c1c2C(=O)[O-1]","n","25.0","?C","","-","JGRPKOGHYBAVMW-UHFFFAOYSA"
"ClC1=CN=C2C=CC=CC2=C1","-","R946445","M120634","-","-","3-Chloroquinoline","-","Koerner","charochkina","A5793","-","-","-","2.63","Log unit","2.63","Log unit","n1cc(Cl)cc2c1cccc2","3","","{n=[3]}","Cl-c(cnc1cc2)cc1cc2","n","25.0","?C","","-","FLORQCMDMHHIHN-UHFFFAOYSA"
"ClC1=CC=NC2=C1C=CC=C2","-","R946446","M22413","-","-","4-Chloroquinoline","-","Koerner","charochkina","A5793","-","-","-","3.7","Log unit","3.7","Log unit","n1ccc(Cl)c2ccccc12","4","","{n=[4]}","Cl-c(ccn1)c(ccc2)c1c2","n","25.0","?C","","-","KNDOFJFSHZCKGT-UHFFFAOYSA"
"ClC1=CC=CC2=C1C=CC=N2","-","R946447","M23038","-","-","5-Chloroquinoline","-","Koerner","charochkina","A5793","-","-","-","3.65","Log unit","3.65","Log unit","n1c2c(c(Cl)ccc2)ccc1","10","","{n=[10]}","Cl-c(ccc1)c(ccc2)c1n2","n","25.0","?C","","-","HJSRGOVAIOPERP-UHFFFAOYSA"
"ClC1=CC=C2N=CC=CC2=C1","-","R946448","M3289","-","-","6-Chloroquinoline","-","Koerner","charochkina","A5793","-","-","-","4.045","Log unit","4.045","Log unit","n1c2ccc(Cl)cc2ccc1","5","","{n=[5]}","Cl-c(ccc1nc2)cc1cc2","n","25.0","?C","","-","GKJSZXGYFJBYRQ-UHFFFAOYSA"
"ClC1=CC=C2C=CC=NC2=C1","-","R946449","M111214","-","-","7-chloroquinoline","-","Koerner","charochkina","A5793","-","-","-","3.85","Log unit","3.85","Log unit","n1c2cc(Cl)ccc2ccc1","9","","{n=[9]}","Cl-c(ccc1cc2)cc1nc2","n","25.0","?C","","-","QNGUPQRODVPRDC-UHFFFAOYSA"
"ClC1=CC=CC2=C1N=CC=C2","-","R946450","M10065","-","-","8-Chloroquinoline","-","Koerner","charochkina","A5793","-","-","-","3.12","Log unit","3.12","Log unit","n1c2c(Cl)cccc2ccc1","6","","{n=[6]}","Cl-c(ccc1)c(ncc2)c1c2","n","25.0","?C","","-","RUSMDMDNFUYZTM-UHFFFAOYSA"
"CCOC1=CC2=C(C=C1)N=CC=C2Cl","-","R946451","M1106891","-","-","4-chloro-6-ethoxyquinoline","-","Koerner","charochkina","A5793","-","-","-","3.82","Log unit","3.82","Log unit","n1ccc(Cl)c2cc(ccc12)OCC","4","","{n=[4]}","Cl-c(ccn1)c(cc(c2)OCC)c1c2","n","25.0","?C","","-","UMAFNRLXFGANJH-UHFFFAOYSA"
"FC1=CC2=C(C=C1)N=CC=C2Cl","-","R946452","M1106892","-","-","4-chloro-6-fluoroquinoline","-","Koerner","charochkina","A5793","-","-","-","2.95","Log unit","2.95","Log unit","n1ccc(Cl)c2cc(F)ccc12","4","","{n=[4]}","Cl-c(ccn1)c(cc(F)c2)c1c2","n","25.0","?C","","-","CKTQPWIDUQGUGG-UHFFFAOYSA"
"FC1=CC2=C(C=C1)C(Cl)=CC=N2","-","R946453","M1106893","-","-","4-chloro-7-fluoroquinoline","-","Koerner","charochkina","A5793","-","-","-","3.04","Log unit","3.04","Log unit","n1ccc(Cl)c2ccc(F)cc12","4","","{n=[4]}","Cl-c(ccn1)c(ccc2F)c1c2","n","25.0","?C","","-","TTXZTTXOYYOVEV-UHFFFAOYSA"
"OC1=C2N=CC=CC2=CC=C1Cl","-","R946454","M68010","-","-","7-chloro-8-hydroxyquinoline","-","Koerner","charochkina","A5793","-","-","-","4.0","Log unit","4.0","Log unit","n1c2c(c(Cl)ccc2ccc1)O","10","","{n=[10], oh=[8]}","Cl-c(ccc1cc2)c(O)c1nc2","n","25.0","?C","","-","RMJFNYXBFISIET-UHFFFAOYSA"
"[S-]C1=CC=C(Cl)C2=C1N=CC=C2","-","R946455","M1106894","-","-","5-chloro-8-mercaptoquinoline","-","Koerner","charochkina","A5793","-","-","-","7.34","Log unit","7.34","Log unit","n1c2c(c(Cl)ccc2[S-])ccc1","11","","{n=[11]}","Cl-c(ccc1[S-1])c(ccc2)c1n2","n","25.0","?C","","-","RXZUTASZHJOZKP-UHFFFAOYSA"