"SMILES","CASRN","RECORDID","MOLECULEID","EXTERNALID","N","NAME","NAME","INTRODUCER","MODIFIER","ARTICLEID","PUBMEDID","PAGE","TABLE","pKa (smiles as ob. cond.) {measured}","UNIT {pKa (smiles as ob. cond.)}","pKa (smiles as ob. cond.) {measured, converted}","UNIT {pKa (smiles as ob. cond.)}","Ionizable centre (smiles)","IC group detected","AtomNR of IC","groupsAndICs","IC smiles given","IC group given","Temperature","UNIT {Temperature}","MultiGroupDetection","COMMENTS","INCHI_KEY"
"N#CCCNCCC#N","-","R944906","M18793","-","-","1-cyano-2-(2-cyanoethyl)aminoethane","-","Koerner","charochkina","A5793","-","-","-","5.23","Log unit","5.23","Log unit","N(CCC#N)CCC#N","4","","{nr2=[4]}","N#CCCNCCC#N","nr2","25.0","?C","","-","SBAJRGRUGUQKAF-UHFFFAOYSA"
"CCN(CC)CCC#N","-","R944907","M75294","-","-","1-cyano-2-diethylaminoethane","-","Koerner","charochkina","A5793","-","-","-","7.625","Log unit","7.625","Log unit","N(CCC#N)(CC)CC","4","","{nr2=[4]}","N#CCCN(CC)CC","nr2","25.0","?C","","-","LFFKXGFSDGRFQA-UHFFFAOYSA"
"CN(C)CCC#N","-","R944908","M25682","-","-","1-cyano-2-dimethylaminoethane","-","Koerner","charochkina","A5793","-","-","-","7.0","Log unit","7.0","Log unit","N(CCC#N)(C)C","4","","{nr2=[4]}","N#CCCN(C)C","nr2","25.0","?C","","-","MTPJEFOSTIKRSS-UHFFFAOYSA"
"CCN(CC)C#N","-","R944909","M22568","-","-","N-cyano-N-ethylaminoethane","-","Koerner","charochkina","A5793","-","-","-","-2.0","Log unit","-2.0","Log unit","N(C#N)(CC)CC","2","","{nr2=[2]}","N#CN(CC)CC","nr2","25.0","?C","","-","ZZTSQZQUWBFTAT-UHFFFAOYSA"
"CC(C)NCCC#N","-","R944910","M1106979","-","-","1-cyano-2-isopropylaminoethane","-","Koerner","charochkina","A5793","-","-","-","8.0","Log unit","8.0","Log unit","N(CCC#N)C(C)C","4","","{nr2=[4]}","N#CCCNC(C)C","nr2","25.0","?C","","-","XBAXAJAODIQLCI-UHFFFAOYSA"
"CCN(CC)CC#N","-","R944911","M27701","-","-","N-cyanomethyl-N-ethylaminoethane","-","Koerner","charochkina","A5793","-","-","-","4.525","Log unit","4.525","Log unit","N(CC#N)(CC)CC","3","","{nr2=[3]}","N#CCN(CC)CC","nr2","25.0","?C","","-","LVPZSMIBSMMLPI-UHFFFAOYSA"
"NCCN","-","R944912","M8586","-","-","1,2-diamino-ethane","-","Koerner","charochkina","A5793","-","-","-","9.76","Log unit","9.76","Log unit","NCCN","0","","{nr2=[0, 3]}","NCCN","nr2","25.0","?C","true","-","PIICEJLVQHRZGT-UHFFFAOYSA"
"NCC[NH3+]","-","R944913","M8586","-","-","1,2-diamino-ethane","-","Koerner","charochkina","A5793","-","-","-","7.1","Log unit","7.1","Log unit","NCC[NH3+]","0","","{nr2=[0]}","NCC[N+1]","nr2","25.0","?C","","-","PIICEJLVQHRZGT-UHFFFAOYSA"
"CCN(CC)CC","-","R944914","M14208","-","-","Diethylaminoethane","-","Koerner","charochkina","A5793","-","-","-","10.6","Log unit","10.6","Log unit","N(CC)(CC)CC","0","","{nr2=[0]}","N(CC)(CC)CC","nr2","25.0","?C","","-","ZMANZCXQSJIPKH-UHFFFAOYSA"
"CCN(CC)CCOCC[NH+](CC)CC","-","R944915","M1106980","-","-","1-diethylamino-2-diethylaminoethoxyethane","-","Koerner","charochkina","A5793","-","-","-","8.6","Log unit","8.6","Log unit","[NH+](CCOCCN(CC)CC)(CC)CC","3","","{nr2=[3, 10]}","O(CC[N+1](CC)CC)CCN(CC)CC","nr2","25.0","?C","true","-","MELCWEWUZODSIS-UHFFFAOYSA"
"CCN(CC)CCOCC[NH+](C)C","-","R944916","M1106981","-","-","1-diethylamino-2-dimethylaminoethoxyethane","-","Koerner","charochkina","A5793","-","-","-","8.38","Log unit","8.38","Log unit","[NH+](CCOCCN(CC)CC)(C)C","3","","{nr2=[3, 8]}","O(CC[N+1](C)C)CCN(CC)CC","nr2","25.0","?C","true","-","SKONQUYDXIBTRG-UHFFFAOYSA"
"CCNCCC(=O)C(C1=CC=CC=C1)C1=CC=CC=C1","-","R944917","M1106982","-","-","1-diethylamino-2-diphenylmethylcarbonylethane","-","Koerner","charochkina","A5793","-","-","-","9.55","Log unit","9.55","Log unit","N(CCC(=O)C(c1ccccc1)c1ccccc1)CC","15","","{nr2=[15]}","c(ccc1C(-c(ccc2)cc2)C(=O)CCNCC)cc1","nr2","25.0","?C","","-","LRTQOPLTZKDGMK-UHFFFAOYSA"
"CCN(C)CCOCC[NH+](CC)CC","-","R944918","M1106983","-","-","1-diethylamino-2-ethylmethylaminoethoxyethane","-","Koerner","charochkina","A5793","-","-","-","8.76","Log unit","8.76","Log unit","N(CCOCC[NH+](CC)CC)(CC)C","3","","{nr2=[3, 9]}","O(CCN(CC)C)CC[N+1](CC)CC","nr2","25.0","?C","true","-","ZENJPYHJYQGXPB-UHFFFAOYSA"
"CCN(CC)CCO","-","R944919","M730","-","-","1-diethylamino-2-hydroxyethane","-","Koerner","charochkina","A5793","-","-","-","9.7785","Log unit","9.7785","Log unit","N(CCO)(CC)CC","3","","{nr2=[3], oh=[0]}","OCCN(CC)CC","nr2","25.0","?C","","-","BFSVOASYOCHEOV-UHFFFAOYSA"
"CCN(C)C","-","R944920","M1807","-","-","dimethylaminoethane","-","Koerner","charochkina","A5793","-","-","-","10.16","Log unit","10.16","Log unit","N(C)(C)CC","1","","{nr2=[1]}","CN(C)CC","nr2","25.0","?C","","-","DAZXVJBJRMWXJP-UHFFFAOYSA"
"CN(C)CCOCCN(C)C","-","R944921","M27743","-","-","1-dimethylamino-2-dimethylaminoethoxyethane","-","Koerner","charochkina","A5793","-","-","-","9.47","Log unit","9.47","Log unit","N(CCOCCN(C)C)(C)C","3","","{nr2=[3, 8]}","O(CCN(C)C)CCN(C)C","nr2","25.0","?C","true","-","GTEXIOINCJRBIO-UHFFFAOYSA"
"CN(C)CCOCC[NH+](C)C","-","R944922","M27743","-","-","1-dimethylamino-2-dimethylaminoethoxyethane","-","Koerner","charochkina","A5793","-","-","-","8.49","Log unit","8.49","Log unit","[NH+](CCOCCN(C)C)(C)C","3","","{nr2=[3, 8]}","O(CC[N+1](C)C)CCN(C)C","nr2","25.0","?C","true","-","GTEXIOINCJRBIO-UHFFFAOYSA"
"CN(C)CCN(C)CCN(C)C","-","R944923","M27732","-","-","1-dimethylamino-2-(2-dimethylamino)ethylmethylaminoethane","-","Koerner","charochkina","A5793","-","-","-","9.0","Log unit","9.0","Log unit","N(C)(C)CCN(C)CCN(C)C","0","","{nr2=[0, 5, 9]}","N(C)(C)CCN(C)CCN(C)C","nr2","25.0","?C","true","-","UKODFQOELJFMII-UHFFFAOYSA"
"CN(C)CCC(=O)C(C1=CC=CC=C1)C1=CC=CC=C1","-","R944924","M1106984","-","-","1-dimethylamino-2-diphenylmethylcarbonylethane","-","Koerner","charochkina","A5793","-","-","-","8.71","Log unit","8.71","Log unit","N(CCC(=O)C(c1ccccc1)c1ccccc1)(C)C","15","","{nr2=[15]}","c(ccc1C(c(ccc2)cc2)C(=O)CCN(C)C)cc1","nr2","25.0","?C","","-","YOODYJXXRKFIGD-UHFFFAOYSA"