Smiles,CASRN,Record ID,Molecule ID,External ID,N,Name,Introducer,Modifer,Article ID,PUBMED ID,PAGE,TABLE,pKa,pKa Unit,Temperature,Temperature Unit,Ionizable center smiles,IC group
CN(C)CCC1=CC=NC=C1,-,R933301,M41608,-,-,4-(DIMETHYLAMINOETHYL)PYRIDINE,Koerner,charochkina,A3555,12767145,-,-,8.7,Log unit,,-,N(CCc1ccncc1)(C)C,
CN(C)CC1=CC=NC=C1,-,R933302,M124461,-,-,4-(DIMETHYLAMINOMETHYL)PYRIDINE,Koerner,charochkina,A3555,12767145,-,-,7.66,Log unit,,-,N(Cc1ccncc1)(C)C,
CNC1=CC=NC=C1,-,R933303,M124462,-,-,4-(METHYLAMINO)PYRIDINE,Koerner,charochkina,A3555,12767145,-,-,9.65,Log unit,,-,n1ccc(cc1)NC,
NC1=CC=C(C=C1)C(F)(F)F,-,R933304,M7825,-,-,4-(Trifluoromethyl)aniline,Koerner,charochkina,A3555,12767145,-,-,2.6,Log unit,,-,Nc1ccc(cc1)C(F)(F)F,
C(CC1=CC=NC=C1)N1CCCC1,-,R933305,M124472,-,-,4-[2-(N-PYRROLIDINYL)ETHYL]PYRIDINE,Koerner,charochkina,A3555,12767145,-,-,9.27,Log unit,,-,N1(CCc2ccncc2)CCCC1,
CC(=O)C1=CC=NC=C1,-,R933306,M12430,-,-,4-acetylpyridine,Koerner,charochkina,A3555,12767145,-,-,3.51,Log unit,,-,n1ccc(cc1)C(=O)C,
CC1=CC(N)=C(C)C=C1O,-,R933307,M72392,-,-,"4-AMINO-2,5-DIMETHYLPHENOL2",Koerner,charochkina,A3555,12767145,-,-,5.28,Log unit,,-,Nc1c(cc(c(c1)C)O)C,
NC1=CC(=CC2=C1C=CC=C2)C(O)=O,-,R933308,M124352,-,,4-AMINO-2-NAPHTHOICACID2,Koerner,charochkina,A3555,12767145,-,,4.46,Log unit,,-,Nc1cc(cc2ccccc12)C(=O)O,
CC1=CN=CC(C)=C1N,-,R933309,M124463,-,-,"4-AMINO-3,5-DIMETHYLPYRIDINE",Koerner,charochkina,A3555,12767145,-,-,9.54,Log unit,,-,n1cc(c(c(c1)C)N)C,
NC1=C(CBr)C=NC=C1,-,R933310,M124464,-,-,4-AMINO-3-BROMOMETHYLPYRIDINE,Koerner,charochkina,A3555,12767145,-,-,7.47,Log unit,,-,n1cc(c(cc1)N)CBr,
NC1=C(Br)C=NC=C1,-,R933311,M32993,-,-,4-AMINO-3-BROMOPYRIDINE,Koerner,charochkina,A3555,12767145,-,-,7.04,Log unit,,-,n1cc(c(cc1)N)Br,
CCC1=C(N)C=CN=C1,-,R933312,M124465,-,-,4-AMINO-3-ETHYLPYRIDINE,Koerner,charochkina,A3555,12767145,-,-,9.51,Log unit,,-,n1cc(c(cc1)N)CC,
CC(C)C1=C(N)C=CN=C1,-,R933313,M124466,-,-,4-AMINO-3-ISOPROPYLPYRIDINE,Koerner,charochkina,A3555,12767145,-,-,9.54,Log unit,,-,n1cc(c(cc1)N)C(C)C,
CC1=C(N)C=CN=C1,-,R933314,M26077,-,-,4-Amino-3-methylpyridine,Koerner,charochkina,A3555,12767145,-,-,9.43,Log unit,,-,n1cc(c(cc1)N)C,
NC1=CC=C(C=C1)C(O)=O,-,R933315,M273,-,,4-AMINOBENZOICACID2,Koerner,charochkina,A3555,12767145,-,,2.38,Log unit,,-,Nc1ccc(cc1)C(=O)O,
COC(=O)C1=CC=C(N)C=C1,-,R933316,M6596,-,-,4-AMINOBENZOICACIDMETHYLESTER,Koerner,charochkina,A3555,12767145,-,-,2.45,Log unit,,-,Nc1ccc(cc1)C(=O)OC,
NC1=CC=C(C=C1)C#N,-,R933317,M13398,-,-,4-Aminobenzonitrile,Koerner,charochkina,A3555,12767145,-,-,1.74,Log unit,,-,Nc1ccc(cc1)C#N,
NC1=CC=C(C=C1)C(=O)C1=CC=CC=C1,-,R933318,M9596,-,-,4-Aminobenzophenone,Koerner,charochkina,A3555,12767145,-,-,2.15,Log unit,,-,Nc1ccc(cc1)C(=O)c1ccccc1,
NC1=CC=C(C=C1)C1=CC=CC=C1,-,R933319,M2097,-,-,4-Aminobiphenyl,Koerner,charochkina,A3555,12767145,-,-,4.27,Log unit,,-,Nc1ccc(cc1)c1ccccc1,
NCCCC(O)=O,-,R933320,M15778,-,-,4-AMINOBUTANOICACID2,Koerner,charochkina,A3555,12767145,-,-,10.56,Log unit,,-,NCCCC(=O)O,
N[C@H]1CONC1=O,-,R933321,M66064,-,-,4-AMINOISOXAZOLIDINE-3-ONE,Koerner,charochkina,A3555,12767145,-,-,7.4,Log unit,,-,NC1C(=O)NOC1,
C[C@H](N)CCC(O)=O,-,R933322,M124353,-,-,4-AMINOPENTANOICACID2,Koerner,charochkina,A3555,12767145,-,-,10.46,Log unit,,-,NC(C)CCC(=O)O,
[NH2:5][C:4]1=[CH:6][CH:7]=[N:1][CH:2]=[CH:3]1,-,R933323,M7603,-,-,4-aminopyridine,Koerner,charochkina,A3555,12767145,-,-,9.11,Log unit,,-,n1ccc(N)cc1,
NC1=CC=C(C(O)=O)C(O)=C1,-,R933324,M12608,-,-,4-AMINOSALICYLICACID2,Koerner,charochkina,A3555,12767145,-,-,3.92,Log unit,,-,OC(=O)c1c(cc(cc1)N)O,
NC1=CC=C(Br)C=C1,-,R933325,M12166,-,-,4-Bromoaniline,Koerner,charochkina,A3555,12767145,-,-,3.88,Log unit,,-,Nc1ccc(cc1)Br,
BrC1=CC=NC=C1,-,R933326,M1008,-,-,4-Bromopyridine,Koerner,charochkina,A3555,12767145,-,-,3.71,Log unit,,-,n1ccc(cc1)Br,
NC1=C(C=C(Cl)C=C1)N(=O)=O,-,R933327,M17920,-,-,4-CHLORO-2-NITROANILINE,Koerner,charochkina,A3555,12767145,-,-,-1.1,Log unit,,-,Nc1ccc(cc1N(=O)=O)Cl,
CNC1=CC=C(Cl)C=C1,-,R933328,M24093,-,-,4-Chloro-N-methylaniline,Koerner,charochkina,A3555,12767145,-,-,3.9,Log unit,,-,N(c1ccc(cc1)Cl)C,
CC1=C(N)C=CC(Cl)=C1,-,R933329,M1730,-,-,4-CHLORO-O-TOLUIDINE,Koerner,charochkina,A3555,12767145,-,-,3.38,Log unit,,-,Nc1ccc(cc1C)Cl,
NC1=CC=C(Cl)C=C1,-,R933330,M9410,-,-,4-chloroaniline,Koerner,charochkina,A3555,12767145,-,-,3.99,Log unit,,-,Nc1ccc(cc1)Cl,
ClC1=CC=NC=C1,-,R933331,M22832,-,-,4-CHLOROPYRIDINE,Koerner,charochkina,A3555,12767145,-,-,3.83,Log unit,,-,n1ccc(cc1)Cl,
N#CC1=CC=NC=C1,-,R933332,M3404,-,-,4-Cyanopyridine,Koerner,charochkina,A3555,12767145,-,-,1.9,Log unit,,-,n1ccc(cc1)C#N,
CN(C)C1=CC=C(C=O)C=C1,-,R933333,M746,-,-,4-Dimethylaminobenzaldehyde,Koerner,charochkina,A3555,12767145,-,-,1.65,Log unit,,-,N(c1ccc(cc1)C=O)(C)C,
CCOC1=CC=C(N)C=C1,-,R933334,M19743,-,-,4-ETHOXYANILINE,Koerner,charochkina,A3555,12767145,-,-,5.25,Log unit,,-,Nc1ccc(cc1)OCC,
CCOC1=CC=NC=C1,-,R933335,M124467,-,-,4-ETHOXYPYRIDINE,Koerner,charochkina,A3555,12767145,-,-,6.67,Log unit,,-,n1ccc(cc1)OCC,
CCC1=CC=C(N)C=C1,-,R933336,M4030,-,-,4-ethylaniline,Koerner,charochkina,A3555,12767145,-,-,5,Log unit,,-,Nc1ccc(cc1)CC,
CCC1=CC=NC=C1,-,R933337,M21402,-,-,4-ETHYLPYRIDINE,Koerner,charochkina,A3555,12767145,-,-,5.87,Log unit,,-,n1ccc(cc1)CC,
NC1=CC=C(F)C=C1,-,R933338,M5817,-,-,4-FLUOROANILINE,Koerner,charochkina,A3555,12767145,-,-,4.65,Log unit,,-,Nc1ccc(cc1)F,
OC1=C(C=O)C=CN=C1,-,R933339,M124468,-,-,4-FORMYL-3-HYDROXYPYRIDINE,Koerner,charochkina,A3555,12767145,-,-,4.05,Log unit,,-,n1cc(c(cc1)C=O)O,
COC1=C(C=O)C=CN=C1,-,R933340,M124469,-,-,4-FORMYL-3-METHOXYPYRIDINE,Koerner,charochkina,A3555,12767145,-,-,4.45,Log unit,,-,n1cc(c(cc1)C=O)OC,
OCC1=CNC=N1,-,R933341,M23730,-,-,4-HYDROXYMETHYLIMIDAZOLE,Koerner,charochkina,A3555,12767145,-,-,6.38,Log unit,,-,n1c[nH]cc1CO,
NC1=CC=C(I)C=C1,-,R933342,M21457,-,-,4-IODOANILINE,Koerner,charochkina,A3555,12767145,-,-,3.82,Log unit,,-,Nc1ccc(cc1)I,
CC(C)C1=CC=NC=C1,-,R933343,M23346,-,-,4-Isopropylpyridine,Koerner,charochkina,A3555,12767145,-,-,6.02,Log unit,,-,n1ccc(cc1)C(C)C,
COC1=CC=C(N)C=C1,-,R933344,M760,-,-,4-METHOXYANILINE,Koerner,charochkina,A3555,12767145,-,-,5.36,Log unit,,-,Nc1ccc(cc1)OC,
COC(=O)C1=CC=C(N)C=C1,-,R933345,M6596,-,-,4-METHOXYCARBONYLANILINE,Koerner,charochkina,A3555,12767145,-,-,2.38,Log unit,,-,Nc1ccc(cc1)C(=O)OC,
COC(=O)C1=CC=NC=C1,-,R933346,M8059,-,-,4-Methoxycarbonylpyridine,Koerner,charochkina,A3555,12767145,-,-,6.47,Log unit,,-,n1ccc(cc1)C(=O)OC,
COC1=CC=NC=C1,-,R933347,M22623,-,-,4-METHOXYPYRIDINE,Koerner,charochkina,A3555,12767145,-,-,6.47,Log unit,,-,n1ccc(cc1)OC,
CC1=CC=NC(=C1)C1=CC(C)=CC=N1,-,R933348,M24716,-,-,"4-METHYL-2,2'-(4-METHYLPYRIDYL)PYRIDINE",Koerner,charochkina,A3555,12767145,-,-,5.32,Log unit,,-,n1ccc(cc1c1nccc(c1)C)C,
CC1=CC=CC2=C1N=CN2,-,R933349,M124470,-,-,4-METHYLBENZIMIDAZOLE,Koerner,charochkina,A3555,12767145,-,-,5.65,Log unit,,-,n1c[nH]c2cccc(c12)C,
CC1=CNC=N1,-,R933350,M23727,-,-,4-Methylimidazole,Koerner,charochkina,A3555,12767145,-,-,7.55,Log unit,,-,n1c[nH]cc1C,
CC1=CC=NC=C1,-,R933351,M2669,-,-,4-Methylpyridine,Koerner,charochkina,A3555,12767145,-,-,6,Log unit,,-,n1ccc(cc1)C,
CS(=O)(=O)C1=CC=C(N)C=C1,-,R933352,M30395,-,-,4-METHYLSULFONYLANILINE,Koerner,charochkina,A3555,12767145,-,-,1.48,Log unit,,-,Nc1ccc(cc1)S(=O)(=O)C,
CC1=CSC=N1,-,R933353,M23325,-,-,4-METHYLTHIAZOLE,Koerner,charochkina,A3555,12767145,-,-,3.16,Log unit,,-,n1cscc1C,
CSC1=CC=C(N)C=C1,-,R933354,M18516,-,-,4-METHYLTHIOANILINE,Koerner,charochkina,A3555,12767145,-,-,4.4,Log unit,,-,Nc1ccc(cc1)SC,
CSC1=CC=NC=C1,-,R933355,M124471,-,-,4-METHYLTHIOPYRIDINE,Koerner,charochkina,A3555,12767145,-,-,5.94,Log unit,,-,n1ccc(cc1)SC,
NC1=CC=C(C=C1)N(=O)=O,-,R933356,M10872,-,-,4-nitroaniline,Koerner,charochkina,A3555,12767145,-,-,1.01,Log unit,,-,Nc1ccc(cc1)N(=O)=O,
NC1=CC=C(N)C=C1,-,R933357,M1209,-,-,4-Phenylenediamine,Koerner,charochkina,A3555,12767145,-,-,6.08,Log unit,,-,Nc1ccc(cc1)N,
N1C=NC(=C1)C1=CC=CC=C1,-,R933358,M67463,-,-,4-Phenylimidazole,Koerner,charochkina,A3555,12767145,-,-,6.1,Log unit,,-,n1c[nH]cc1c1ccccc1,
O=CC1=CC=NC=C1,-,R933359,M23868,-,-,4-PYRIDINECARBALDEHYDE,Koerner,charochkina,A3555,12767145,-,-,4.74,Log unit,,-,n1ccc(C=O)cc1,
CC(C)(C)C1=CC=C(N)C=C1,-,R933360,M12541,-,-,4-T-BUTYLANILINE,Koerner,charochkina,A3555,12767145,-,-,3.78,Log unit,,-,Nc1ccc(C(C)(C)C)cc1,
CC(C)(C)C1=CC=NC=C1,-,R933361,M28886,-,-,4-T-BUTYLPYRIDINE,Koerner,charochkina,A3555,12767145,-,-,5.99,Log unit,,-,n1ccc(cc1)C(C)(C)C,
C=CC1=CC=NC=C1,-,R933362,M18322,-,-,4-VINYLPYRIDINE,Koerner,charochkina,A3555,12767145,-,-,5.62,Log unit,,-,n1ccc(cc1)C=C,
CC1=CC2=C(C=C1C)N=CN2,-,R933363,M6213,-,-,"5,6-Dimethylbenzimidazole",Koerner,charochkina,A3555,12767145,-,-,5.96,Log unit,,-,n1c[nH]c2cc(c(cc12)C)C,
NCCCCC(O)=O,-,R933364,M23204,-,-,5-AMINOPENTANOICACID2,Koerner,charochkina,A3555,12767145,-,-,9.76,Log unit,,-,NCCCCC(=O)O,
NC1=CC=C(O)C(=C1)C(O)=O,-,R933365,M17917,-,-,5-AMINOSALICYLICACID2,Koerner,charochkina,A3555,12767145,-,-,5.84,Log unit,,-,Nc1cc(c(cc1)O)C(=O)O,
CC1=C(N)C=C(Cl)C=C1,-,R933366,M12558,-,-,5-CHLORO-O-TOLUIDINE,Koerner,charochkina,A3555,12767145,-,-,3.85,Log unit,,-,Nc1cc(ccc1C)Cl,
CC1=CC2=C(NC=N2)C=C1,-,R933367,M22490,-,-,5-Methylbenzimidazole,Koerner,charochkina,A3555,12767145,-,-,5.78,Log unit,,-,n1c[nH]c2ccc(cc12)C,
CC1=CC=CC2=C1C=CC=N2,-,R933368,M32128,-,-,5-Methylquinoline,Koerner,charochkina,A3555,12767145,-,-,4.62,Log unit,,-,n1cccc2c(cccc12)C,
CC1=CN=CS1,-,R933369,M124473,-,-,5-METHYLTHIAZOLE,Koerner,charochkina,A3555,12767145,-,-,3.03,Log unit,,-,n1csc(c1)C,
NCCCCCC(O)=O,-,R933370,M10473,-,-,6-AMINOHEXANOICACID2,Koerner,charochkina,A3555,12767145,-,-,10.8,Log unit,,-,NCCCCCC(=O)O,
CC1=C(N)C(Cl)=CC=C1,-,R933371,M17859,-,-,6-Chloro-o-toluidine,Koerner,charochkina,A3555,12767145,-,-,3.62,Log unit,,-,Nc1c(cccc1C)Cl,
NC1=CC=CC2=C1C=C(O)C=C2,-,R933372,M18977,-,-,8-Amino-2-naphthol,Koerner,charochkina,A3555,12767145,-,-,4.2,Log unit,,-,Nc1cccc2ccc(cc12)O,
COC(=O)C1=CC=CC=C1N,-,R933173,M19421,-,-,2-AMINOBENZOICACIDMETHYLESTER,Koerner,charochkina,A3555,12767145,-,-,2.36,Log unit,,-,Nc1c(cccc1)C(=O)OC,
NC1=C(C=CC=C1)C1=CC=CC=C1,-,R933174,M10827,-,-,2-Aminobiphenyl,Koerner,charochkina,A3555,12767145,-,-,3.78,Log unit,,-,Nc1ccccc1c1ccccc1,
CC[C@@H](N)C(O)=O,-,R933175,M71615,-,-,2-AMINOBUTANOICACID2,Koerner,charochkina,A3555,12767145,-,-,9.83,Log unit,,-,NC(CC)C(=O)O,
NCCS(O)(=O)=O,-,R933176,M18600,-,-,2-AMINOETHANESULFONICACID2,Koerner,charochkina,A3555,12767145,-,-,9.06,Log unit,,-,NCCS(=O)(=O)O,
NCCO,-,R933177,M4218,-,-,2-aminoethanol,Koerner,charochkina,A3555,12767145,-,-,9.5,Log unit,,-,NCCO,
CCCC[C@@H](N)C(O)=O,-,R933178,M122699,-,-,2-AMINOHEXANOICACID2,Koerner,charochkina,A3555,12767145,-,-,9.83,Log unit,,-,NC(CCCC)C(=O)O,
CCC[C@@H](N)C(O)=O,-,R933179,M56023,-,-,2-AMINOPENTANOICACID2,Koerner,charochkina,A3555,12767145,-,-,9.81,Log unit,,-,NC(CCC)C(=O)O,
NC1=NC=CC=C1,-,R933180,M4302,-,-,2-Aminopyridine,Koerner,charochkina,A3555,12767145,-,-,6.71,Log unit,,-,n1c(cccc1)N,
CC1=CC2=C(C=C1)N=C(CC1=CC=CC=C1)N2,-,R933181,M124438,-,-,2-BENZYL-6-METHYLBENZIMIDAZOLE,Koerner,charochkina,A3555,12767145,-,-,6,Log unit,,-,n1c([nH]c2cc(ccc12)C)Cc1ccccc1,
C(C1=CC=CC=C1)C1=NC=CC=C1,-,R933182,M8443,-,-,2-Benzylpyridine,Koerner,charochkina,A3555,12767145,-,-,5.13,Log unit,,-,n1c(cccc1)Cc1ccccc1,
C([C@H]1CCCN1)C1=CC=CC=C1,-,R933183,M124439,-,-,2-BENZYLPYRROLIDINE,Koerner,charochkina,A3555,12767145,-,-,10.31,Log unit,,-,N1C(CCC1)Cc1ccccc1,
NC1=C(Br)C=C(C=C1N(=O)=O)N(=O)=O,-,R933184,M5936,-,-,"2-Bromo-4,6-dinitroaniline",Koerner,charochkina,A3555,12767145,-,-,-6.94,Log unit,,-,Nc1c(cc(cc1Br)N(=O)=O)N(=O)=O,
NC1=CC=CC=C1Br,-,R933185,M339,-,-,2-BROMOANILINE,Koerner,charochkina,A3555,12767145,-,-,2.53,Log unit,,-,Nc1c(cccc1)Br,
BrC1=NC=CC=C1,-,R933186,M4499,-,-,2-Bromopyridine,Koerner,charochkina,A3555,12767145,-,-,0.71,Log unit,,-,n1c(cccc1)Br,
CC[C@@H](C)N,-,R933187,M121352,-,-,2-Butanamine,Koerner,charochkina,A3555,12767145,-,-,10.56,Log unit,,-,NC(CC)C,
CCCCC1=CCCN1C,-,R933188,M124440,-,-,2-BUTYL-1-METHYL-2-PYRROLINE,Koerner,charochkina,A3555,12767145,-,-,11.84,Log unit,,-,N1(CCC=C1CCCC)C,
NC1=C(C=CC=C1Cl)N(=O)=O,-,R933189,M67700,-,-,2-Chloro-6-nitroaniline,Koerner,charochkina,A3555,12767145,-,-,-2.41,Log unit,,-,Nc1c(cccc1N(=O)=O)Cl,
NC1=C(Cl)C=CC=C1,-,R933190,M213,-,-,2-chloroaniline,Koerner,charochkina,A3555,12767145,-,-,2.64,Log unit,,-,Nc1ccccc1Cl,
ClC1=CC=CC=N1,-,R933191,M8017,-,-,2-chloropyridine,Koerner,charochkina,A3555,12767145,-,-,0.49,Log unit,,-,n1ccccc1Cl,
N#CC1=NC=CC=C1,-,R933192,M2561,-,-,2-cyanopyridine,Koerner,charochkina,A3555,12767145,-,-,-0.26,Log unit,,-,n1c(cccc1)C#N,
C1CC=C(N1)C1CCCCC1,-,R933193,M124441,-,-,2-CYCLOHEXYL-2-PYRROLINE,Koerner,charochkina,A3555,12767145,-,-,7.91,Log unit,,-,N1C(=CCC1)C1CCCCC1,
C1CN[C@H](C1)C1CCCCC1,-,R933194,M124442,-,-,2-CYCLOHEXYLPYRROLIDINE,Koerner,charochkina,A3555,12767145,-,-,10.76,Log unit,,-,N1C(CCC1)C1CCCCC1,
CCOC1=CC=CC=C1N,-,R933195,M18117,-,-,2-ETHOXYANILINE,Koerner,charochkina,A3555,12767145,-,-,4.47,Log unit,,-,Nc1ccccc1OCC,
CCC1=CCCN1,-,R933196,M124443,-,-,2-ETHYL-2-PYRROLINE,Koerner,charochkina,A3555,12767145,-,-,7.87,Log unit,,-,N1C(=CCC1)CC,
CCC1=CC=CC=C1N,-,R933197,M6855,-,-,2-Ethylaniline,Koerner,charochkina,A3555,12767145,-,-,4.42,Log unit,,-,Nc1ccccc1CC,
CCC1=NC2=C(N1)C=CC=C2,-,R933198,M25855,-,-,2-Ethylbenzimidazole,Koerner,charochkina,A3555,12767145,-,-,6.18,Log unit,,-,n1c([nH]c2ccccc12)CC,
CCC1=NC=CN1,-,R933199,M68556,-,-,2-Ethylimidazole,Koerner,charochkina,A3555,12767145,-,-,8,Log unit,,-,n1c([nH]cc1)CC,
CCC1=NC=CC=C1,-,R933200,M7541,-,-,2-ETHYLPYRIDINE,Koerner,charochkina,A3555,12767145,-,-,5.89,Log unit,,-,n1c(cccc1)CC,
NC1=CC=CC=C1F,-,R933201,M2917,-,-,2-Fluoroaniline,Koerner,charochkina,A3555,12767145,-,-,3.2,Log unit,,-,Nc1ccccc1F,
FC1=NC=CC=C1,-,R933202,M20256,-,-,2-FLUOROPYRIDINE,Koerner,charochkina,A3555,12767145,-,-,-0.44,Log unit,,-,n1c(cccc1)F,
OC1=CC=CN=C1C=O,-,R933203,M124444,-,-,2-FORMYL-3-HYDROXYPYRIDINE,Koerner,charochkina,A3555,12767145,-,-,3.4,Log unit,,-,n1c(c(ccc1)O)C=O,
COC1=CC=CN=C1C=O,-,R933204,M124445,-,-,2-FORMYL-3-METHOXYPYRIDINE,Koerner,charochkina,A3555,12767145,-,-,3.89,Log unit,,-,n1c(c(ccc1)OC)C=O,
CC1=CC(O)=NC=C1,-,R933205,M32962,-,-,2-Hydroxy-4-methylpyridine,Koerner,charochkina,A3555,12767145,-,-,4.53,Log unit,,-,n1c(cc(cc1)C)O,
OC1=NC2=C(N1)C=CC=C2,-,R933206,M22497,-,-,2-Hydroxybenzimidazole,Koerner,charochkina,A3555,12767145,-,-,2.4,Log unit,,-,n1c([nH]c2ccccc12)O,
CN1C(CO)=NC2=C1C=CC=C2,-,R933207,M124446,-,-,2-HYDROXYMETHYL-1-METHYLBENZIMIDAZOLE,Koerner,charochkina,A3555,12767145,-,-,5.55,Log unit,,-,n1c(n(c2ccccc12)C)CO,
OCC1=NC2=C(N1)C=CC=C2,-,R933208,M74738,-,-,2-HYDROXYMETHYLBENZIMIDAZOLE,Koerner,charochkina,A3555,12767145,-,-,5.6,Log unit,,-,n1c([nH]c2ccccc12)CO,
NC1=CC=CC=C1I,-,R933209,M10934,-,-,2-Iodoaniline,Koerner,charochkina,A3555,12767145,-,-,2.54,Log unit,,-,Nc1ccccc1I,
IC1=NC=CC=C1,-,R933210,M110744,-,-,2-Iodopyridine,Koerner,charochkina,A3555,12767145,-,-,1.82,Log unit,,-,n1c(cccc1)I,
CC(C)C1=NC2=C(N1)C=CC=C2,-,R933211,M124447,-,-,2-ISOPROPYLBENZIMIDAZOLE,Koerner,charochkina,A3555,12767145,-,-,6.21,Log unit,,-,n1c([nH]c2ccccc12)C(C)C,
CC(C)C1=NC=CC=C1,-,R933212,M23140,-,-,2-Isopropylpyridine,Koerner,charochkina,A3555,12767145,-,-,5.83,Log unit,,-,n1c(cccc1)C(C)C,
NCCS,-,R933213,M17222,-,-,2-Mercaptoethylamine,Koerner,charochkina,A3555,12767145,-,-,10.53,Log unit,,-,NCCS,
COC1=CC=CC=C1N,-,R933214,M11807,-,-,2-Methoxyaniline,Koerner,charochkina,A3555,12767145,-,-,4.53,Log unit,,-,Nc1ccccc1OC,
COC(=O)C1=CC=CC=C1N,-,R933215,M19421,-,-,2-METHOXYCARBONYLANILINE,Koerner,charochkina,A3555,12767145,-,-,2.23,Log unit,,-,Nc1ccccc1C(=O)OC,
COC(=O)CC1=NC2=C(N1)C=CC=C2,-,R933216,M124448,-,-,2-METHOXYCARBONYLMETHYLBENZIMIDAZOLE,Koerner,charochkina,A3555,12767145,-,-,4.6,Log unit,,-,n1c([nH]c2ccccc12)CC(=O)OC,
COC(=O)C1=NC=CC=C1,-,R933217,M26923,-,-,2-METHOXYCARBONYLPYRIDINE,Koerner,charochkina,A3555,12767145,-,-,2.21,Log unit,,-,n1c(cccc1)C(=O)OC,
COCCN,-,R933218,M443,-,-,2-Methoxyethylamine,Koerner,charochkina,A3555,12767145,-,-,9.45,Log unit,,-,NCCOC,
COC1=NC=CC=C1,-,R933219,M25501,-,-,2-METHOXYPYRIDINE,Koerner,charochkina,A3555,12767145,-,-,3.06,Log unit,,-,n1c(cccc1)OC,
CC1=NC2=C(N1)C=C(C(=C2)N(=O)=O)N(=O)=O,-,R933220,M124449,-,-,"2-METHYL-5,6-DINITROBENZIMIDAZOLE",Koerner,charochkina,A3555,12767145,-,-,0.7,Log unit,,-,n1c([nH]c2cc(c(cc12)N(=O)=O)N(=O)=O)C,
CC1=NC2=C(N1)C=CC=C2,-,R933221,M6094,-,-,2-methylbenzimidazole,Koerner,charochkina,A3555,12767145,-,-,6.19,Log unit,,-,n1c([nH]c2ccccc12)C,
CC1=NC=CN1,-,R933222,M6531,-,-,2-Methylimidazole,Koerner,charochkina,A3555,12767145,-,-,7.85,Log unit,,-,n1c([nH]cc1)C,
C[C@@H]1CCCCN1,-,R933223,M124450,-,-,2-METHYLPIPERIDINE,Koerner,charochkina,A3555,12767145,-,-,10.95,Log unit,,-,N1C(CCCC1)C,
CC1=NC=CC=C1,-,R933224,M1014,-,-,2-METHYLPYRIDINE,Koerner,charochkina,A3555,12767145,-,-,5.96,Log unit,,-,n1c(cccc1)C,
CC1=NC=CS1,-,R933225,M28415,-,-,2-Methylthiazole,Koerner,charochkina,A3555,12767145,-,-,3.4,Log unit,,-,n1c(scc1)C,
CSC1=NC=CC=C1,-,R933226,M34447,-,-,2-METHYLTHIOPYRIDINE,Koerner,charochkina,A3555,12767145,-,-,3.59,Log unit,,-,n1c(cccc1)SC,
NC1=CC2=C(C=CC=C2)C=C1,-,R933227,M4877,-,-,2-NAPHTHYLAMINE,Koerner,charochkina,A3555,12767145,-,-,4.11,Log unit,,-,Nc1cc2ccccc2cc1,
NC1=C(C=CC=C1)N(=O)=O,-,R933228,M2166,-,-,2-nitroaniline,Koerner,charochkina,A3555,12767145,-,-,-0.28,Log unit,,-,Nc1c(cccc1)N(=O)=O,
N1C2=C(C=CC=C2)N=C1C1=CC=CC=C1,-,R933229,M23435,-,-,2-PHENYLBENZIMIDAZOLE,Koerner,charochkina,A3555,12767145,-,-,5.23,Log unit,,-,n1c([nH]c2ccccc12)c1ccccc1,
NC1=CC=CC=C1N,-,R933230,M3150,-,-,2-PHENYLENEDIAMINE,Koerner,charochkina,A3555,12767145,-,-,4.47,Log unit,,-,Nc1c(cccc1)N,
NCCC1=CC=CC=C1,-,R933231,M764,-,-,2-phenylethylamine,Koerner,charochkina,A3555,12767145,-,-,9.83,Log unit,,-,NCCc1ccccc1,
N1C=CN=C1C1=CC=CC=C1,-,R933232,M14019,-,-,2-Phenylimidazole,Koerner,charochkina,A3555,12767145,-,-,6.48,Log unit,,-,n1c([nH]cc1)c1ccccc1,
CCCC1=NC=CC=C1,-,R933233,M22690,-,-,2-Propylpyridine,Koerner,charochkina,A3555,12767145,-,-,6.3,Log unit,,-,n1c(cccc1)CCC,
O=CC1=CC=CC=N1,-,R933234,M24643,-,-,2-Pyridinecarbaldehyde,Koerner,charochkina,A3555,12767145,-,-,3.84,Log unit,,-,n1ccccc1C=O,
CC(C)(C)C1=CC=CC=N1,-,R933235,M30768,-,-,2-T-BUTYLPYRIDINE,Koerner,charochkina,A3555,12767145,-,-,5.76,Log unit,,-,n1ccccc1C(C)(C)C,
C=CC1=NC=CC=C1,-,R933236,M18332,-,-,2-VINYLPYRIDINE,Koerner,charochkina,A3555,12767145,-,-,4.98,Log unit,,-,n1c(cccc1)C=C,
CC1=C(C)C2=C(N=C1)C(O)=CC=C2,-,R933237,M124318,-,-,"3,4-DIMETHYL-8-HYDROXYQUINOLINE",Koerner,charochkina,A3555,12767145,-,-,5.8,Log unit,,-,n1cc(c(c2cccc(c12)O)C)C,
CC1=C(C)C=C(N)C=C1,-,R933238,M2142,-,-,"3,4-Dimethylaniline",Koerner,charochkina,A3555,12767145,-,-,5.17,Log unit,,-,Nc1cc(c(cc1)C)C,
CC1=C(C)C=NC=C1,-,R933239,M7609,-,-,"3,4-dimethylpyridine",Koerner,charochkina,A3555,12767145,-,-,6.47,Log unit,,-,n1cc(c(cc1)C)C,
NC1=CC(Br)=CC(Br)=C1,-,R933240,M124452,-,-,"3,5-DIBROMOANILINE",Koerner,charochkina,A3555,12767145,-,-,2.35,Log unit,,-,Nc1cc(cc(c1)Br)Br,
NC1=CC(Cl)=CC(Cl)=C1,-,R933241,M11294,-,-,"3,5-Dichloroaniline",Koerner,charochkina,A3555,12767145,-,-,2.37,Log unit,,-,Nc1cc(cc(c1)Cl)Cl,
NC1=CC(I)=CC(I)=C1,-,R933242,M124453,-,-,"3,5-DIIODOANILINE",Koerner,charochkina,A3555,12767145,-,-,2.37,Log unit,,-,Nc1cc(cc(c1)I)I,
COC1=CC(OC)=CC(N)=C1,-,R933243,M80090,-,-,"3,5-Dimethoxyaniline",Koerner,charochkina,A3555,12767145,-,-,3.86,Log unit,,-,Nc1cc(cc(c1)OC)OC,
CC1=CC(N)=CC(C)=C1,-,R933244,M6820,-,-,"3,5-Dimethylaniline",Koerner,charochkina,A3555,12767145,-,-,4.76,Log unit,,-,Nc1cc(cc(c1)C)C,
CC1=CC(C)=CN=C1,-,R933245,M4166,-,-,"3,5-dimethylpyridine",Koerner,charochkina,A3555,12767145,-,-,6.09,Log unit,,-,n1cc(cc(c1)C)C,
NC1=CC(=CC(=C1)N(=O)=O)N(=O)=O,-,R933246,M6917,-,-,"3,5-dinitroaniline",Koerner,charochkina,A3555,12767145,-,-,0.23,Log unit,,-,Nc1cc(cc(c1)N(=O)=O)N(=O)=O,
C(N1CCCC1)C1=CN=CC=C1,-,R933247,M20238,-,-,3-(1-Pyrrolidinylmethyl)pyridine,Koerner,charochkina,A3555,12767145,-,-,8.36,Log unit,,-,N1(Cc2cnccc2)CCCC1,