Smiles,CASRN,Record ID,Molecule ID,External ID,N,Name,Introducer,Modifer,Article ID,PUBMED ID,PAGE,TABLE,pKa,pKa Unit,Temperature,Temperature Unit,Ionizable center smiles,IC group
CCCCNCC[NH2+]CCCC,-,R944881,M73653,-,-,"1,2-bisbutylaminoethane",Koerner,charochkina,A5793,-,-,-,7.76,Log unit,25,?C,N(CCCC)CC[NH2+]CCCC,0
CCN(CCC#N)CCC#N,-,R944882,M1106974,-,-,bis(2-cyanoethyl)aminoethane,Koerner,charochkina,A5793,-,-,-,4.55,Log unit,25,?C,N(CCC#N)(CC)CCC#N,4
CCN(CC#N)CC#N,-,R944883,M1106975,-,-,bis(cyanomethyl)aminoethane,Koerner,charochkina,A5793,-,-,-,-0.6,Log unit,25,?C,N(CC#N)(CC)CC#N,3
CCN(CC)CCN(CC)CC,-,R944884,M19699,-,-,"1,2-bisdiethylaminoethane",Koerner,charochkina,A5793,-,-,-,9.3,Log unit,25,?C,N(CC)(CC)CCN(CC)CC,0
CCN(CC)CC[NH+](CC)CC,-,R944885,M19699,-,-,"1,2-bisdiethylaminoethane",Koerner,charochkina,A5793,-,-,-,6.9,Log unit,25,?C,N(CC)(CC)CC[NH+](CC)CC,0
CC(O)CN(CCN(CC(C)O)CC(C)O)CC(C)O,-,R944886,M18420,-,-,"1,2-bis(di-2-hydroxypropylamino)ethane",Koerner,charochkina,A5793,-,-,-,8.54,Log unit,25,?C,N(CC(O)C)(CC(O)C)CCN(CC(O)C)CC(O)C,3
CC(O)CN(CC[NH+](CC(C)O)CC(C)O)CC(C)O,-,R944887,M18420,-,-,"1,2-bis(di-2-hydroxypropylamino)ethane",Koerner,charochkina,A5793,-,-,-,4.6,Log unit,25,?C,[NH+](CC(O)C)(CC(O)C)CCN(CC(O)C)CC(O)C,3
CC(=O)OCCN,-,R944888,M1106976,-,-,1-acetoxy-2-aminoethane,Koerner,charochkina,A5793,-,-,-,8.85,Log unit,25,?C,NCCOC(=O)C,5
CN(C)CCN(C)C,-,R944889,M5944,-,-,"1,2-bisdimethylaminoethane",Koerner,charochkina,A5793,-,-,-,8.8,Log unit,25,?C,N(C)(C)CCN(C)C,0
CN(C)CC[NH+](C)C,-,R944890,M5944,-,-,"1,2-bisdimethylaminoethane",Koerner,charochkina,A5793,-,-,-,6,Log unit,25,?C,[NH+](C)(C)CCN(C)C,0
CN(CCN(C)CC[NH+](C)C)CC[NH+](C)C,-,R944891,M27805,-,-,"1,2-bis(2-dimethylamino)ethylmethylaminoethane",Koerner,charochkina,A5793,-,-,-,5.1,Log unit,25,?C,[NH+](C)(C)CCN(C)CCN(C)CC[NH+](C)C,0
CCNCCNCC,-,R944892,M18783,-,-,"1,2-bisethylaminoethane",Koerner,charochkina,A5793,-,-,-,10.16,Log unit,25,?C,N(CC)CCNCC,0
CCNCC[NH2+]CC,-,R944893,M18783,-,-,"1,2-bisethylaminoethane",Koerner,charochkina,A5793,-,-,-,8,Log unit,25,?C,N(CC[NH2+]CC)CC,5
CC(C)NCCNC(C)C,-,R944894,M73652,-,-,"1,2-bisisopropylaminoethane",Koerner,charochkina,A5793,-,-,-,10.1,Log unit,25,?C,N(C(C)C)CCNC(C)C,0
CC(C)NCC[NH2+]C(C)C,-,R944895,M73652,-,-,"1,2-bisisopropylaminoethane",Koerner,charochkina,A5793,-,-,-,7.9,Log unit,25,?C,N(CC[NH2+]C(C)C)C(C)C,6
CNCCNC,-,R944896,M18736,-,-,"1,2-bismethylaminoethane",Koerner,charochkina,A5793,-,-,-,9.9,Log unit,25,?C,N(C)CCNC,0
CNCC[NH2+]C,-,R944897,M18736,-,-,"1,2-bismethylaminoethane",Koerner,charochkina,A5793,-,-,-,7.7,Log unit,25,?C,N(C)CC[NH2+]C,0
CCCNCCNCCC,-,R944898,M1106977,-,-,"1,2-bispropylaminoethane",Koerner,charochkina,A5793,-,-,-,10,Log unit,25,?C,N(CCC)CCNCCC,0
CCCNCC[NH2+]CCC,-,R944899,M1106977,-,-,"1,2-bispropylaminoethane",Koerner,charochkina,A5793,-,-,-,7.8,Log unit,25,?C,N(CC[NH2+]CCC)CCC,6
CCNCCOC(C1=CC=CC=C1)C1=CC=CC=C1,-,R944900,M1106978,-,-,1-(p-bromobenzhydryloxy)-2-dimethylaminoethane,Koerner,charochkina,A5793,-,-,-,8.64,Log unit,25,?C,N(CCOC(c1ccccc1)c1ccccc1)CC,8
ClCCN(CCCl)CCCl,-,R944901,M21695,-,-,1-chloro-2-(bis-2-chloroethyl)aminoethane,Koerner,charochkina,A5793,-,-,-,4.505,Log unit,25,?C,N(CCCl)(CCCl)CCCl,3
CN(CCCl)CCCl,-,R944902,M3670,-,-,1-chloro-2-(N-chloroethylmethyl)aminoethane,Koerner,charochkina,A5793,-,-,-,6.43,Log unit,25,?C,N(CCCl)(CCCl)C,3
CCN(CC)CCCl,-,R944903,M18319,-,-,1-chloro-2-diethylaminoethane,Koerner,charochkina,A5793,-,-,-,8.98,Log unit,25,?C,N(CCCl)(CC)CC,3
CCN(Cl)CC,-,R944904,M23203,-,-,N-chloro-N-ethylaminoethane,Koerner,charochkina,A5793,-,-,-,1.02,Log unit,25,?C,N(Cl)(CC)CC,1
CN(CCO)CCCl,-,R944905,M42485,-,-,1-chloro-2-(2-hydroxyethylmethyl)aminoethane,Koerner,charochkina,A5793,-,-,-,7.645,Log unit,25,?C,N(CCCl)(C)CCO,3
N#CCCNCCC#N,-,R944906,M18793,-,-,1-cyano-2-(2-cyanoethyl)aminoethane,Koerner,charochkina,A5793,-,-,-,5.23,Log unit,25,?C,N(CCC#N)CCC#N,4
CCN(CC)CCC#N,-,R944907,M75294,-,-,1-cyano-2-diethylaminoethane,Koerner,charochkina,A5793,-,-,-,7.625,Log unit,25,?C,N(CCC#N)(CC)CC,4
CN(C)CCC#N,-,R944908,M25682,-,-,1-cyano-2-dimethylaminoethane,Koerner,charochkina,A5793,-,-,-,7,Log unit,25,?C,N(CCC#N)(C)C,4
CCN(CC)C#N,-,R944909,M22568,-,-,N-cyano-N-ethylaminoethane,Koerner,charochkina,A5793,-,-,-,-2,Log unit,25,?C,N(C#N)(CC)CC,2
CC(C)NCCC#N,-,R944910,M1106979,-,-,1-cyano-2-isopropylaminoethane,Koerner,charochkina,A5793,-,-,-,8,Log unit,25,?C,N(CCC#N)C(C)C,4
CCN(CC)CC#N,-,R944911,M27701,-,-,N-cyanomethyl-N-ethylaminoethane,Koerner,charochkina,A5793,-,-,-,4.525,Log unit,25,?C,N(CC#N)(CC)CC,3
NCCN,-,R944912,M8586,-,-,"1,2-diamino-ethane",Koerner,charochkina,A5793,-,-,-,9.76,Log unit,25,?C,NCCN,0
NCC[NH3+],-,R944913,M8586,-,-,"1,2-diamino-ethane",Koerner,charochkina,A5793,-,-,-,7.1,Log unit,25,?C,NCC[NH3+],0
CCN(CC)CC,-,R944914,M14208,-,-,Diethylaminoethane,Koerner,charochkina,A5793,-,-,-,10.6,Log unit,25,?C,N(CC)(CC)CC,0
CCN(CC)CCOCC[NH+](CC)CC,-,R944915,M1106980,-,-,1-diethylamino-2-diethylaminoethoxyethane,Koerner,charochkina,A5793,-,-,-,8.6,Log unit,25,?C,[NH+](CCOCCN(CC)CC)(CC)CC,3
CCN(CC)CCOCC[NH+](C)C,-,R944916,M1106981,-,-,1-diethylamino-2-dimethylaminoethoxyethane,Koerner,charochkina,A5793,-,-,-,8.38,Log unit,25,?C,[NH+](CCOCCN(CC)CC)(C)C,3
CCNCCC(=O)C(C1=CC=CC=C1)C1=CC=CC=C1,-,R944917,M1106982,-,-,1-diethylamino-2-diphenylmethylcarbonylethane,Koerner,charochkina,A5793,-,-,-,9.55,Log unit,25,?C,N(CCC(=O)C(c1ccccc1)c1ccccc1)CC,15
CCN(C)CCOCC[NH+](CC)CC,-,R944918,M1106983,-,-,1-diethylamino-2-ethylmethylaminoethoxyethane,Koerner,charochkina,A5793,-,-,-,8.76,Log unit,25,?C,N(CCOCC[NH+](CC)CC)(CC)C,3
CCN(CC)CCO,-,R944919,M730,-,-,1-diethylamino-2-hydroxyethane,Koerner,charochkina,A5793,-,-,-,9.7785,Log unit,25,?C,N(CCO)(CC)CC,3
CCN(C)C,-,R944920,M1807,-,-,dimethylaminoethane,Koerner,charochkina,A5793,-,-,-,10.16,Log unit,25,?C,N(C)(C)CC,1
CN(C)CCOCCN(C)C,-,R944921,M27743,-,-,1-dimethylamino-2-dimethylaminoethoxyethane,Koerner,charochkina,A5793,-,-,-,9.47,Log unit,25,?C,N(CCOCCN(C)C)(C)C,3
CN(C)CCOCC[NH+](C)C,-,R944922,M27743,-,-,1-dimethylamino-2-dimethylaminoethoxyethane,Koerner,charochkina,A5793,-,-,-,8.49,Log unit,25,?C,[NH+](CCOCCN(C)C)(C)C,3
CN(C)CCN(C)CCN(C)C,-,R944923,M27732,-,-,1-dimethylamino-2-(2-dimethylamino)ethylmethylaminoethane,Koerner,charochkina,A5793,-,-,-,9,Log unit,25,?C,N(C)(C)CCN(C)CCN(C)C,0
CN(C)CCC(=O)C(C1=CC=CC=C1)C1=CC=CC=C1,-,R944924,M1106984,-,-,1-dimethylamino-2-diphenylmethylcarbonylethane,Koerner,charochkina,A5793,-,-,-,8.71,Log unit,25,?C,N(CCC(=O)C(c1ccccc1)c1ccccc1)(C)C,15
NC1=CC=CC=C1B(O)O,-,R937157,M134435,-,-,o-aminophenylboric acid,Koerner,charochkina,A5793,-,-,-,9.3,Log unit,25,?C,O[B](O)c1ccccc1N,{bo2h2=1}
OB(O)C1=CC=CC=C1,-,R937158,M18261,-,-,Phenylboric acid,Koerner,charochkina,A5793,-,-,-,8.83,Log unit,25,?C,O[B](O)c1ccccc1,{bo2h2=1}
NC1=CC(=CC=C1)B(O)O,-,R937159,M84092,-,-,m-aminophenylboric acid,Koerner,charochkina,A5793,-,-,-,4.46,Log unit,25,?C,Nc1cc([B](O)O)ccc1,{nr2=9}
NC1=CC(=CC=C1)B(O)O,-,R937160,M84092,-,-,m-aminophenylboric acid,Koerner,charochkina,A5793,-,-,-,8.8,Log unit,25,?C,O[B](O)c1cccc(c1)N,{bo2h2=1}
NC1=CC=C(C=C1)B(O)O,-,R937161,M1050570,-,-,p-aminophenylboric acid,Koerner,charochkina,A5793,-,-,-,3.71,Log unit,25,?C,Nc1ccc([B](O)O)cc1,{nr2=7}
NC1=CC=C(C=C1)B(O)O,-,R937162,M1050570,-,-,p-aminophenylboric acid,Koerner,charochkina,A5793,-,-,-,9.2,Log unit,25,?C,O[B](O)c1ccc(N)cc1,{bo2h2=1}
OB(O)C1=CC=CC(O)=C1,-,R937163,M1050571,-,-,m-hydroxyphenylboric acid,Koerner,charochkina,A5793,-,-,-,8.55,Log unit,25,?C,O[B](O)c1cccc(c1)O,{bo2h2=1}
SP(=S)(OC1=CC=CC=C1)OC1=CC=CC=C1,-,R937164,M26572,-,-,di-phenoxy-dithiophosphoric acid,Koerner,charochkina,A5793,-,-,-,1.81,Log unit,25,?C,SP(=S)(Oc1ccccc1)Oc1ccccc1,{ps2h=2}
COP(S)(=S)OC,-,R937165,M23493,-,-,di-methoxy-dithiophosphoric acid,Koerner,charochkina,A5793,-,-,-,1.55,Log unit,25,?C,SP(=S)(OC)OC,{ps2h=2}
CCOP(S)(=S)OCC,-,R937166,M19853,-,-,di-ethoxy-dithiophosphoric acid,Koerner,charochkina,A5793,-,-,-,1.62,Log unit,25,?C,SP(=S)(OCC)OCC,{ps2h=2}
CC(C)OP(S)(=S)OC(C)C,-,R937167,M18616,-,-,di-isopropoxy-dithiophosphoric acid,Koerner,charochkina,A5793,-,-,-,1.82,Log unit,25,?C,SP(=S)(OC(C)C)OC(C)C,{ps2h=2}
SP(=S)(C1=CC=C(Cl)C=C1)C1=CC=C(Cl)C=C1,-,R937168,M1050572,-,-,di-p-chlorophenyl-dithiophosphoric acid,Koerner,charochkina,A5793,-,-,-,1.79,Log unit,25,?C,SP(=S)(c1ccc(Cl)cc1)c1ccc(Cl)cc1,{ps2h=2}
CC(C)COP(S)(=S)OCC(C)C,-,R937169,M54099,-,-,di-butoxy-dithiophosphoric acid,Koerner,charochkina,A5793,-,-,-,1.79,Log unit,25,?C,SP(=S)(OCC(C)C)OCC(C)C,{ps2h=2}
CCCOP(S)(=S)OCCC,-,R937170,M70968,-,-,di-n-propoxy-dithiophosphoric acid,Koerner,charochkina,A5793,-,-,-,1.75,Log unit,25,?C,SP(=S)(OCCC)OCCC,{ps2h=2}
CCCCOP(S)(=S)OCCCC,-,R937171,M26571,-,-,di-n-butoxy-dithiophosphoric acid,Koerner,charochkina,A5793,-,-,-,1.83,Log unit,25,?C,SP(=S)(OCCCC)OCCCC,{ps2h=2}
SP(=S)(C1=CC=CC=C1)C1=CC=CC=C1,-,R937172,M1050573,-,-,di-phenyl-dithiophosphoric acid,Koerner,charochkina,A5793,-,-,-,1.75,Log unit,25,?C,SP(=S)(c1ccccc1)c1ccccc1,{ps2h=2}
CCCOP(C)(S)=S,-,R937173,M1034330,-,-,ethoxy-methyl-dithiophosphoric acid,Koerner,charochkina,A5793,-,-,-,1.74,Log unit,25,?C,SP(=S)(C)OCCC,{ps2h=2}
CC1=CC=C(C=C1)P(S)(=S)C1=CC=C(C)C=C1,-,R937174,M1050574,-,-,di-p-methylphenyl-dithiophosphoric acid,Koerner,charochkina,A5793,-,-,-,1.81,Log unit,25,?C,SP(=S)(c1ccc(C)cc1)c1ccc(C)cc1,{ps2h=2}
CCCCOP(C)(S)=S,-,R937175,M1034332,-,-,butoxy-methyl-dithiophosphoric acid,Koerner,charochkina,A5793,-,-,-,1.73,Log unit,25,?C,SP(=S)(C)OCCCC,{ps2h=2}
CCP(S)(=S)CC,-,R937176,M1034333,-,-,di-n-ethyl-dithiophosphoric acid,Koerner,charochkina,A5793,-,-,-,1.71,Log unit,25,?C,SP(=S)(CC)CC,{ps2h=2}
CCCP(S)(=S)CCC,-,R937177,M1034334,-,-,di-n-propyl-dithiophosphoric acid,Koerner,charochkina,A5793,-,-,-,1.84,Log unit,25,?C,SP(=S)(CCC)CCC,{ps2h=2}
CCCP(S)(=S)CCC,-,R937178,M1034334,-,-,di-n-butyl-dithiophosphoric acid,Koerner,charochkina,A5793,-,-,-,1.79,Log unit,25,?C,SP(=S)(CCC)CCC,{ps2h=2}
CC(C)P(S)(=S)C(C)C,-,R937179,M1034335,-,-,di-iso-propyl-dithiophosphoric acid,Koerner,charochkina,A5793,-,-,-,1.64,Log unit,25,?C,SP(=S)(C(C)C)C(C)C,{ps2h=2}
OP(=S)(OC1=CC=CC=C1)OC1=CC=CC=C1,-,R937180,M1050575,-,-,di-phenoxy-thiophosphoric acid,Koerner,charochkina,A5793,-,-,-,1.5,Log unit,25,?C,OP(=S)(Oc1ccccc1)Oc1ccccc1,{psoh=2}
CCOP(O)(=S)OCC,-,R937181,M1017763,-,-,di-ethoxy-thiophosphoric acid,Koerner,charochkina,A5793,-,-,-,1.49,Log unit,25,?C,OP(=S)(OCC)OCC,{psoh=2}
CC(C)OP(O)(=S)OC(C)C,-,R937182,M1034337,-,-,di-isopropoxy-thiophosphoric acid,Koerner,charochkina,A5793,-,-,-,1.59,Log unit,25,?C,OP(=S)(OC(C)C)OC(C)C,{psoh=2}
OP(=S)(C1=CC=C(Cl)C=C1)C1=CC=C(Cl)C=C1,-,R937183,M1050576,-,-,di-p-chlorophenyl-thiophosphoric acid,Koerner,charochkina,A5793,-,-,-,1.6,Log unit,25,?C,OP(=S)(c1ccc(Cl)cc1)c1ccc(Cl)cc1,{psoh=2}
CCC(C)OP(O)(=S)OC(C)CC,-,R937184,M1034339,-,-,di-isobutoxy-thiophosphoric acid,Koerner,charochkina,A5793,-,-,-,1.55,Log unit,25,?C,OP(=S)(OC(C)CC)OC(C)CC,{psoh=2}
CCCOP(O)(=S)OCCC,-,R937185,M1034340,-,-,di-n-propoxy-thiophosphoric acid,Koerner,charochkina,A5793,-,-,-,1.55,Log unit,25,?C,OP(=S)(OCCC)OCCC,{psoh=2}
CCCCOP(O)(=S)OCCCC,-,R937186,M79862,-,-,di-n-butoxy-thiophosphoric acid,Koerner,charochkina,A5793,-,-,-,1.65,Log unit,25,?C,OP(=S)(OCCCC)OCCCC,{psoh=2}
CCOP(C)(O)=S,-,R937187,M34352,-,-,butoxy-methyl-thiophosphoric acid,Koerner,charochkina,A5793,-,-,-,1.82,Log unit,25,?C,OP(=S)(C)OCC,{psoh=2}
OP(=S)(C1=CC=CC=C1)C1=CC=CC=C1,-,R937188,M1050577,-,-,di-phenyl-thiophosphoric acid,Koerner,charochkina,A5793,-,-,-,1.88,Log unit,25,?C,OP(=S)(c1ccccc1)c1ccccc1,{psoh=2}
CCC(C)OP(C)(O)=S,-,R937189,M1034342,-,-,isobutoxy-methyl-thiophosphoric acid,Koerner,charochkina,A5793,-,-,-,1.81,Log unit,25,?C,OP(=S)(C)OC(C)CC,{psoh=2}
CCCOP(C)(O)=S,-,R937190,M1034343,-,-,methyl-n-propyl-thiophosphoric acid,Koerner,charochkina,A5793,-,-,-,1.87,Log unit,25,?C,OP(=S)(C)OCCC,{psoh=2}
CCOP(O)(=S)CC,-,R937191,M1034344,-,-,ethyl-ethoxy-thiophosphoric acid,Koerner,charochkina,A5793,-,-,-,1.88,Log unit,25,?C,OP(=S)(CC)OCC,{psoh=2}
CCCCOP(C)(O)=S,-,R937192,M1034345,-,-,butoxy-methyl-thiophosphoric acid,Koerner,charochkina,A5793,-,-,-,1.95,Log unit,25,?C,OP(=S)(C)OCCCC,{psoh=2}
CCCP(O)(=S)OCC,-,R937193,M1034346,-,-,ethoxy-n-propyl-thiophosphoric acid,Koerner,charochkina,A5793,-,-,-,2,Log unit,25,?C,OP(=S)(CCC)OCC,{psoh=2}
CCCCP(O)(=S)OCC,-,R937194,M1034347,-,-,n-butyl-ethoxy-thiophosphoric acid,Koerner,charochkina,A5793,-,-,-,2.11,Log unit,25,?C,OP(=S)(CCCC)OCC,{psoh=2}
CCCCOP(O)(=S)CC,-,R937195,M1034348,-,-,n-butoxy-ethyl-thiophosphoric acid,Koerner,charochkina,A5793,-,-,-,2.21,Log unit,25,?C,OP(=S)(CC)OCCCC,{psoh=2}
CCCCOP(O)(=S)CC(C)C,-,R937196,M1034349,-,-,n-butoxy-isopropyl-thiophosphoric acid,Koerner,charochkina,A5793,-,-,-,2.2,Log unit,25,?C,OP(=S)(CC(C)C)OCCCC,{psoh=2}
CCP(O)(=S)CC,-,R937197,M1034350,-,-,di-ethyl-thiophosphoric acid,Koerner,charochkina,A5793,-,-,-,2.8,Log unit,25,?C,OP(=S)(CC)CC,{psoh=2}
CCCP(O)(=S)CCC,-,R937198,M1034351,-,-,di-propyl-thiophosphoric acid,Koerner,charochkina,A5793,-,-,-,2.83,Log unit,25,?C,OP(=S)(CCC)CCC,{psoh=2}
CCCCP(O)(=S)CCCC,-,R937199,M1034352,-,-,di-butyl-thiophosphoric acid,Koerner,charochkina,A5793,-,-,-,2.91,Log unit,25,?C,OP(=S)(CCCC)CCCC,{psoh=2}
CCC(C)P(O)(=S)C(C)CC,-,R937200,M1034353,-,-,di-isobutyl-thiophosphoric acid,Koerner,charochkina,A5793,-,-,-,3.17,Log unit,25,?C,OP(=S)(C(C)CC)C(C)CC,{psoh=2}
CC(C)P(O)(=S)C(C)C,-,R937201,M1034354,-,-,di-ispropyl-thiophosphoric acid,Koerner,charochkina,A5793,-,-,-,3.03,Log unit,25,?C,OP(=S)(C(C)C)C(C)C,{psoh=2}
CC(C)CP(O)(=S)CC(C)C,-,R937202,M1005295,-,-,di-sec-butyl-thiophosphoric acid,Koerner,charochkina,A5793,-,-,-,3.1,Log unit,25,?C,OP(=S)(CC(C)C)CC(C)C,{psoh=2}
OC1=CC=C(C([O-])=O)C(O)=C1,-,R937533,M11089,-,-,"2,4-dihydroxy-benzoic acid",Koerner,charochkina,A5793,-,-,-,9.12,Log unit,25,?C,Oc1ccc(C(=O)[O-])c(c1)O,"{oh=[0, 10]}"
OC1=CC(=CC(O)=C1[O-])C([O-])=O,-,R937536,M6312,-,-,gallic acid,Koerner,charochkina,A5793,-,-,-,12.7,Log unit,25,?C,Oc1cc(cc(c1[O-])O)C(=O)[O-],"{oh=[0, 11]}"
[NH3+]C(CC1=CC=C(O)C(O)=C1)C([O-])=O,-,R937540,M12590,-,-,"3,4-Dihydroxyphenylalanine",Koerner,charochkina,A5793,-,-,-,8.7,Log unit,25,?C,Oc1ccc(CC([NH3+])C(=O)[O-])cc1O,"{oh=[0, 12]}"
OC(=O)C1=CC(Cl)=C(O)C(Cl)=C1,-,R937543,M28115,-,-,"3,5-Dichloro-4-hydroxy-benzoic acid",Koerner,charochkina,A5793,-,-,-,5.97,Log unit,25,?C,Oc1c(Cl)cc(cc1Cl)C(=O)O,"{co2h=[7], oh=[9]}"
OC(=O)C1=CC=C(O)C(Cl)=C1,-,R937544,M28868,-,-,3-chloro-4-hydroxy-benzoic acid,Koerner,charochkina,A5793,-,-,-,7.52,Log unit,25,?C,Oc1c(Cl)cc(cc1)C(=O)O,"{co2h=[7], oh=[9]}"
OO,-,R937553,M6760,-,-,hydroperoxide,Koerner,charochkina,A5793,-,-,-,11.9,Log unit,25,?C,OO,"{oh=[0, 1]}"
OCCO,-,R937558,M6557,-,-,"1,2-ethanediol",Koerner,charochkina,A5793,-,-,-,15.55,Log unit,25,?C,OCCO,"{oh=[0, 3]}"
ON=CC=NO,-,R937570,M21735,-,-,Ethanedial dioxime,Koerner,charochkina,A5793,-,-,-,9.075001,Log unit,25,?C,ON=CC=NO,"{oh=[0, 5]}"
ONC(=O)C(=O)NO,-,R937571,M70014,-,-,ethanedihydroxamic acid,Koerner,charochkina,A5793,-,-,-,6.935,Log unit,25,?C,ONC(=O)C(=O)NO,"{nr2=[2, 6], oh=[3, 7]}"
ONC(=O)C(=O)NO,-,R937572,M70014,-,-,ethanedihydroximic acid,Koerner,charochkina,A5793,-,-,-,6.81,Log unit,25,?C,ONC(=O)C(=O)NO,"{nr2=[2, 6], oh=[3, 7]}"
CC(O)CO,-,R937578,M2108,-,-,"1,2-propanediol",Koerner,charochkina,A5793,-,-,-,15.1,Log unit,25,?C,OC(CO)C,"{oh=[0, 3]}"
OCCCO,-,R937579,M21007,-,-,"1,3-PROPANEDIOL",Koerner,charochkina,A5793,-,-,-,15.4,Log unit,25,?C,OCCCO,"{oh=[0, 4]}"
OCC(O)CO,-,R937581,M8486,-,-,"1,2,3-Propanetriol",Koerner,charochkina,A5793,-,-,-,14.7,Log unit,25,?C,OCC(CO)O,"{oh=[0, 3, 5]}"
OCCCCO,-,R937587,M12215,-,-,"1,4-BUTANEDIOL",Koerner,charochkina,A5793,-,-,-,15.4,Log unit,25,?C,OCCCCO,"{oh=[0, 5]}"
OC1=CC=CC=C1O,-,R937609,M13426,-,-,Pyrocatechine,Koerner,charochkina,A5793,-,-,-,9.4,Log unit,25,?C,Oc1ccccc1O,"{oh=[4, 7]}"
OC1=CC(O)=CC=C1,-,R937611,M3218,-,-,Resorcinol,Koerner,charochkina,A5793,-,-,-,10.1,Log unit,25,?C,Oc1cccc(c1)O,"{oh=[4, 7]}"
OC1=CC=C(O)C=C1,-,R937613,M9153,-,-,Hydroquinone,Koerner,charochkina,A5793,-,-,-,10.2,Log unit,25,?C,Oc1ccc(cc1)O,"{oh=[4, 7]}"
CC1=C(C)C(O)=C(C)C(C)=C1O,-,R937616,M10672,-,-,Durohydroquinone,Koerner,charochkina,A5793,-,-,-,11.55,Log unit,25,?C,Oc1c(c(c(O)c(c1C)C)C)C,"{oh=[0, 5]}"
OC1=CC=C(O)C2=CC=CC=C12,-,R937618,M21836,-,-,"1,4-Naphthohydroquinone",Koerner,charochkina,A5793,-,-,-,9.77,Log unit,25,?C,Oc1c2ccccc2c(cc1)O,"{oh=[6, 11]}"
OC1=CC(O)=CC(O)=C1,-,R937620,M9011,-,-,Phloroglucinol,Koerner,charochkina,A5793,-,-,-,9.41,Log unit,25,?C,Oc1cc(cc(c1)O)O,"{oh=[4, 5, 8]}"
OC1=CC=C(Cl)C=C1CC1=CC(Cl)=CC=C1O,-,R937621,M6673,-,-,"2,2'-methylene-bis-(4-chlorophenol)",Koerner,charochkina,A5793,-,-,-,7.9,Log unit,25,?C,Oc1ccc(Cl)cc1Cc1cc(Cl)ccc1O,"{oh=[5, 15]}"
OCC1=CC(CO)=C(O)C(CO)=C1,-,R937641,M72083,-,-,"2,4,6-trimethylolphenol",Koerner,charochkina,A5793,-,-,-,9.56,Log unit,25,?C,Oc1c(cc(CO)cc1CO)CO,"{oh=[0, 6, 8, 12]}"
CC1=CC(CO)=C(O)C=C1,-,R937693,M29287,-,-,2-methylol-4-methyl-phenol,Koerner,charochkina,A5793,-,-,-,10.15,Log unit,25,?C,Oc1ccc(cc1CO)C,"{oh=[3, 6]}"
COC(=O)C1=CC(O)=CC(O)=C1,-,R937764,M9900,-,-,"3,5-dihydroxybenzoate-methyl",Koerner,charochkina,A5793,-,-,-,9.01,Log unit,25,?C,Oc1cc(C(=O)OC)cc(c1)O,"{oh=[7, 10]}"
OCC1=CC=C(O)C(CO)=C1,-,R937776,M72082,-,-,"2,4-dimethylolphenol",Koerner,charochkina,A5793,-,-,-,9.77,Log unit,25,?C,Oc1ccc(CO)cc1CO,"{oh=[0, 6, 10]}"
CC1=CC(CO)=C(O)C(CO)=C1,-,R937777,M17968,-,-,"2,6-Dimethylol-4-methylphenol",Koerner,charochkina,A5793,-,-,-,9.92,Log unit,25,?C,Oc1c(cc(C)cc1CO)CO,"{oh=[0, 7, 11]}"
COC1=C(O)C(CO)=CC=C1,-,R937807,M29285,-,-,2-Hydroxymethyl-6-methoxy-phenol,Koerner,charochkina,A5793,-,-,-,9.97,Log unit,25,?C,Oc1c(cccc1CO)OC,"{oh=[6, 10]}"
OC1=CC=CC=C1CC1=CC=CC=C1O,-,R937896,M71345,-,-,2-(2-hydroxybenzyl)-phenol,Koerner,charochkina,A5793,-,-,-,7.8,Log unit,25,?C,Oc1ccccc1Cc1ccccc1O,"{oh=[0, 13]}"
OC1=C(Cl)C(=O)C(O)=C(Cl)C1=O,-,R937946,M17866,-,-,chloroanilic acid,Koerner,charochkina,A5793,-,-,-,3.5,Log unit,25,?C,OC1=C(Cl)C(=O)C(=C(C1=O)Cl)O,"{oh=[3, 11]}"
OC1=C(C(=O)C(O)=C(C1=O)N(=O)=O)N(=O)=O,-,R937947,M1018849,-,-,"2,5-dihydroxy-3,6-dinitrobenzoquinone",Koerner,charochkina,A5793,-,-,-,-2.7,Log unit,25,?C,OC1=C(C(=O)C(=C(C1=O)N(=O)=O)O)N(=O)=O,"{nr2=[5, 11], oh=[3, 15]}"
OC1=NC2=NC(O)=NC3=NC(O)=NC(=N1)N23,-,R937950,M25256,-,-,cyamelic acid,Koerner,charochkina,A5793,-,-,-,2.5,Log unit,25,?C,Oc1nc2nc(nc3n2c(n1)nc(O)n3)O,"{nr2=[13], oh=[2, 7, 12]}"
OC1=CC=C(O)C2=C1C(=O)C1=CC=CC=C1C2=O,-,R937956,M17648,-,-,"1,4-Dihydroxyanthraquinone",Koerner,charochkina,A5793,-,-,-,10.2,Log unit,25,?C,Oc1ccc(O)c2C(=O)c3ccccc3C(=O)c12,"{oh=[1, 5]}"
OC1=CC=CC2=C1C(=O)C1=CC=CC(O)=C1C2=O,-,R937958,M18943,-,-,"1,5-DIHYDROXYANTHRAQUINONE",Koerner,charochkina,A5793,-,-,-,9.8,Log unit,25,?C,Oc1c2C(=O)c3cccc(O)c3C(=O)c2ccc1,"{oh=[1, 10]}"
OC1=CC=CC2=C1C(=O)C1=C(O)C=CC=C1C2=O,-,R937959,M18942,-,-,"1,8-Dihydroxyanthraquinone",Koerner,charochkina,A5793,-,-,-,8.6,Log unit,25,?C,Oc1cccc2C(=O)c3cccc(O)c3C(=O)c12,"{oh=[1, 13]}"
OC1=CC2=C(C=C1)C(=O)C1=CC(O)=CC=C1C2=O,-,R937960,M17739,-,-,"2,6-Dihydroxyanthraquinone",Koerner,charochkina,A5793,-,-,-,6.55,Log unit,25,?C,Oc1cc2C(=O)c3ccc(cc3C(=O)c2cc1)O,"{oh=[2, 11]}"
[O-]C(=O)CNCCNCC([O-])=O,-,R938305,M110435,-,-,"ethylenediamine-N,N-diacetic acid",Koerner,charochkina,A5793,-,-,-,9.16,Log unit,25,?C,N(CCNCC(=O)[O-])CC(=O)[O-],"{nr2=[4, 7]}"
C[NH+](C)CCN(CC([O-])=O)CC([O-])=O,-,R938306,M1034163,-,-,ethylenediamine-N-dimethyl-N'-diacetic acid,Koerner,charochkina,A5793,-,-,-,5.9,Log unit,25,?C,N(CC(=O)[O-])(CC(=O)[O-])CC[NH+](C)C,"{nr2=[4, 11]}"
[O-]C(=O)CCN(CC[NH+](CCC([O-])=O)CC([O-])=O)CC([O-])=O,-,R938309,M1034164,-,-,"ethylenediamine-N,N'-dipropionic acid-N,N'-diacetic acid",Koerner,charochkina,A5793,-,-,-,6.3,Log unit,25,?C,N(CC(=O)[O-])(CCC(=O)[O-])CC[NH+](CC(=O)[O-])CCC(=O)[O-],"{nr2=[4, 12]}"
[O-]C(=O)CCN(CCN(CCC([O-])=O)CC([O-])=O)CC([O-])=O,-,R938310,M1034164,-,-,"ethylenediamine-N,N'-dipropionic acid-N,N'-diacetic acid",Koerner,charochkina,A5793,-,-,-,9.53,Log unit,25,?C,N(CCN(CC(=O)[O-])CCC(=O)[O-])(CC(=O)[O-])CCC(=O)[O-],"{nr2=[4, 12]}"