Smiles,CASRN,Record ID,Molecule ID,External ID,N,Name,Introducer,Modifer,Article ID,PUBMED ID,PAGE,TABLE,pKa,pKa Unit,Temperature,Temperature Unit,Ionizable center smiles,IC group
[NH2+]C(CC1=CC=C(O)C=C1)C([O-])=O,-,R1204246,M1157746,-,-,tyrosin,Koerner,charochkina,A5793,-,-,-,10.1,Log unit,25,?C,Oc1ccc(CC([NH2+])C(=O)[O-])cc1,oh
NC(CC1=CC=C([O-])C=C1)C([O-])=O,-,R1204247,M8282,-,-,tyrosin,Koerner,charochkina,A5793,-,-,-,10.1,Log unit,25,?C,[O-]c1ccc(CC(N)C(=O)[O-])cc1,nr2
[NH2+]C(CC1=CC=C(O)C(O)=C1)C(O)=O,-,R1204248,M1157747,-,-,"3,4-Dihydroxyphenylalanine",Koerner,charochkina,A5793,-,-,-,2.32,Log unit,25,?C,OC(=O)C(Cc1ccc(O)c(O)c1)[NH2+],co2h
[NH2+]C(CC1=CC=C(O)C(O)=C1)C([O-])=O,-,R1204249,M1157747,-,-,"3,4-Dihydroxyphenylalanine",Koerner,charochkina,A5793,-,-,-,8.7,Log unit,25,?C,Oc1c(O)ccc(CC([NH2+])C(=O)[O-])c1,oh
NC(CC1=CC=C([O-])C(O)=C1)C([O-])=O,-,R1204250,M12590,-,-,"3,4-Dihydroxyphenylalanine",Koerner,charochkina,A5793,-,-,-,9.9,Log unit,25,?C,Oc1c([O-])ccc(CC(N)C(=O)[O-])c1,nr2
[NH2+]C(CC1=CC(I)=C(O)C(I)=C1)C(O)=O,-,R1204251,M1157748,-,-,Diiodotyrosine,Koerner,charochkina,A5793,-,-,-,2.115,Log unit,25,?C,OC(=O)C(Cc1cc(I)c(O)c(c1)I)[NH2+],co2h
[NH2+]C(CC1=CC(I)=C(O)C(I)=C1)C([O-])=O,-,R1204252,M1157748,-,-,Diiodotyrosine,Koerner,charochkina,A5793,-,-,-,6.5,Log unit,25,?C,Oc1c(I)cc(cc1I)CC([NH2+])C(=O)[O-],oh
OC(=O)C1=C(C([O-])=O)C(Cl)=C(Cl)C(Cl)=C1Cl,-,R1204322,M23006,-,-,"Tetrachloro-1,2-benzenedicarboxylic acid",Koerner,charochkina,A5793,-,-,-,2.64,Log unit,25,?C,[O-]C(=O)c1c(C(=O)O)c(Cl)c(Cl)c(Cl)c1Cl,co2h
OC(=O)C1=C(C(O)=O)C(Cl)=CC=C1,-,R1204327,M36924,-,-,"3-chloro-1,2-benzenedicarboxylic acid",Koerner,charochkina,A5793,-,-,-,2,Log unit,25,?C,OC(=O)c1c(Cl)cccc1C(=O)O,2
OC(=O)C1=C(C(O)=O)C(Br)=CC=C1,-,R1204329,M1050360,-,-,"3-bromo-1,2-benzenedicarboxylic acid",Koerner,charochkina,A5793,-,-,-,2.27,Log unit,25,?C,OC(=O)c1c(Br)cccc1C(=O)O,2
OC(=O)C1=CC=C(Br)C=C1C(O)=O,-,R1204331,M78050,-,-,"4-bromo-1,2-benzenedicarboxylic acid",Koerner,charochkina,A5793,-,-,-,2.8,Log unit,25,?C,OC(=O)c1cc(Br)ccc1C(=O)O,2
OC(=O)C1=CC(C(O)=O)=C(C=C1O)C(O)=O,-,R1204389,M1050386,-,-,"5-hydroxy-1,2,4-benzenetricarboxylic acid",Koerner,charochkina,A5793,-,-,-,1.86,Log unit,25,?C,OC(=O)c1c(O)cc(c(C(=O)O)c1)C(=O)O,3
OC(=O)C1=C(C=C(C([O-])=O)C(O)=C1)C(O)=O,-,R1204390,M1050386,-,-,"5-hydroxy-1,2,4-benzenetricarboxylic acid",Koerner,charochkina,A5793,-,-,-,3.4,Log unit,25,?C,OC(=O)c1cc(O)c(cc1C(=O)O)C(=O)[O-],co2h
OC(=O)C1=CC(C(O)=O)=C(O)C(=C1)C(O)=O,-,R1204392,M22379,-,-,"2-hydroxy-1,3,5-benzenetricarboxylic acid",Koerner,charochkina,A5793,-,-,-,3.07,Log unit,25,?C,OC(=O)c1c(O)c(cc(C(=O)O)c1)C(=O)O,2
COC1=CC(C(O)=O)=C(C=C1)C([O-])=O,-,R1204405,M70347,-,-,"4-methoxy-1,2-benzenedicarboxylic acid",Koerner,charochkina,A5793,-,-,-,4.9,Log unit,25,?C,[O-]C(=O)c1ccc(cc1C(=O)O)OC,co2h
CC1=C(O)C=CC(O)=C1,-,R1204565,M1500,-,-,Toluhydroquinone,Koerner,charochkina,A5793,-,-,-,10.1,Log unit,25,?C,Oc1ccc(O)c(C)c1,2
OC1=CC=CC(O)=C1O,-,R1204570,M12514,-,-,pyrogallol,Koerner,charochkina,A5793,-,-,-,9.01,Log unit,25,?C,Oc1c(cccc1O)O,1
OC1=CC=CC([O-])=C1O,-,R1204571,M12514,-,-,pyrogallol,Koerner,charochkina,A5793,-,-,-,10.9,Log unit,25,?C,Oc1cccc([O-])c1O,2
OC1=C([O-])C=CC=C1[O-],-,R1204572,M12514,-,-,pyrogallol,Koerner,charochkina,A5793,-,-,-,14,Log unit,25,?C,[O-]c1cccc(c1O)[O-],oh
OC1=CC(O)=C(O)C=C1,-,R1204574,M3191,-,-,"1,2,4-benzentriol",Koerner,charochkina,A5793,-,-,-,9.1,Log unit,25,?C,Oc1c(O)ccc(c1)O,2
OC1=CC([O-])=C(O)C=C1,-,R1204575,M3191,-,-,"1,2,4-benzentriol",Koerner,charochkina,A5793,-,-,-,11.8,Log unit,25,?C,Oc1cc(c(O)cc1)[O-],2
OC1=CC(Cl)=C(O)C(Cl)=C1,-,R1204576,M118506,-,-,"2,6-Dichlorohydroquinone",Koerner,charochkina,A5793,-,-,-,7.34,Log unit,25,?C,Oc1c(Cl)cc(cc1Cl)O,2
OC1=CC(=C(O)C=C1)N(=O)=O,-,R1204593,M233067,-,-,mononitrohydrquinone,Koerner,charochkina,A5793,-,-,-,7.63,Log unit,25,?C,Oc1ccc(O)cc1N(=O)=O,1
OC1=C(O)C(=CC=C1)N(=O)=O,-,R1204595,M124265,-,-,3-nitropyrocatechine,Koerner,charochkina,A5793,-,-,-,6.49,Log unit,25,?C,Oc1c(cccc1N(=O)=O)O,2
OC1=CC(=C(O)C(=C1)N(=O)=O)N(=O)=O,-,R1204597,M124266,-,-,"2,6-dinitrohydroquinone",Koerner,charochkina,A5793,-,-,-,4.42,Log unit,25,?C,Oc1c(cc(O)cc1N(=O)=O)N(=O)=O,2
OCC1=CC=CC(CO)=C1O,-,R1204600,M72081,-,-,"2,6-dimethylolphenol",Koerner,charochkina,A5793,-,-,-,9.66,Log unit,25,?C,Oc1c(cccc1CO)CO,1
OCC1=CC=CC=C1O,-,R1204654,M1572,-,-,2-hydroxymethyl-phenol,Koerner,charochkina,A5793,-,-,-,9.84,Log unit,25,?C,Oc1ccccc1CO,2
OCC1=CC=CC(O)=C1,-,R1204655,M8036,-,-,3-Hydroxymethyl-phenol,Koerner,charochkina,A5793,-,-,-,9.83,Log unit,25,?C,Oc1cccc(c1)CO,1
OCC1=CC=C(O)C=C1,-,R1204656,M1086,-,-,4-hydroxymethyl-phenol,Koerner,charochkina,A5793,-,-,-,9.82,Log unit,25,?C,Oc1ccc(cc1)CO,2
NC1=C(O)C(=CC(=C1)N(=O)=O)N(=O)=O,-,R1204669,M18192,-,-,"2-amino-4,6-dinitro-phenol",Koerner,charochkina,A5793,-,-,-,1,Log unit,25,?C,Nc1c(O)c(cc(c1)N(=O)=O)N(=O)=O,nr2
COC(=O)C1=C(O)C(O)=CC=C1,-,R1204725,M71207,-,-,"2,3-dihydroxybenzoate-methyl",Koerner,charochkina,A5793,-,-,-,9.1,Log unit,25,?C,Oc1c(c(C(=O)OC)ccc1)O,2
COC(=O)C1=C(O)C=C(O)C=C1,-,R1204727,M26360,-,-,"2,4-dihydroxybenzoate-methyl",Koerner,charochkina,A5793,-,-,-,8.02,Log unit,25,?C,Oc1cc(c(C(=O)OC)cc1)O,2
COC(=O)C1=C(O)C=CC(O)=C1,-,R1204729,M70757,-,-,"2,5-dihydroxybenzoate-methyl",Koerner,charochkina,A5793,-,-,-,9.63,Log unit,25,?C,Oc1ccc(c(C(=O)OC)c1)O,2
COC(=O)C1=C(O)C=CC=C1O,-,R1204731,M718790,-,-,"2,6-dihydroxybenzoate-methyl",Koerner,charochkina,A5793,-,-,-,9.26,Log unit,25,?C,Oc1c(C(=O)OC)c(ccc1)O,2
COC(=O)C1=CC(O)=C(O)C=C1,-,R1204733,M572170,-,-,"3,4-dihydroxybenzoate-methyl",Koerner,charochkina,A5793,-,-,-,8.18,Log unit,25,?C,Oc1c(cc(C(=O)OC)cc1)O,1
CCOC(=O)C1=CC(O)=C(O)C=C1,-,R1204793,M73570,-,-,"3,4-dihydroxybenzoate-methyl",Koerner,charochkina,A5793,-,-,-,8.08,Log unit,25,?C,Oc1c(cc(C(=O)OCC)cc1)O,2
OC1=C(N=O)C(O)=C(N=O)C2=C1C=CC=C2,-,R1204818,M1157749,-,-,2-nitroso-1-napthol,Koerner,charochkina,A5793,-,-,-,4.5,Log unit,25,?C,Oc1c(c(O)c2ccccc2c1N=O)N=O,2
OC1=CC2=C(C=C1O)C=C(C=C2)S([O-])(=O)=O,-,R1204893,M65119,-,-,"6,7-Dihydroxy-2-naphthalenesulfonic acid",Koerner,charochkina,A5793,-,-,-,8.1,Log unit,25,?C,Oc1c(cc2ccc(cc2c1)S(=O)(=O)[O-])O,1
OC1=CC2=C(C=CC(=C2)S([O-])(=O)=O)C=C1[O-],-,R1204894,M65119,-,-,"6,7-Dihydroxy-2-naphthalenesulfonic acid",Koerner,charochkina,A5793,-,-,-,11.85,Log unit,25,?C,[O-]c1cc2ccc(cc2cc1O)S(=O)(=O)[O-],oh
OC(=O)C1=CC=CC=C1N=NC1=CC=C(O)C=C1,-,R1204900,M141867,-,-,2-carboxy-4'-hydroxyazobenzene,Koerner,charochkina,A5793,-,-,-,-1.26,Log unit,25,?C,N(=Nc1ccccc1C(=O)O)c1ccc(O)cc1,4
OC(=O)C1=CC=C(C=C1)N=NC1=CC=C(O)C=C1,-,R1204902,M1013305,-,-,4-carboxy-4'-hydroxy-azobenzene,Koerner,charochkina,A5793,-,-,-,-1.64,Log unit,25,?C,N(=Nc1ccc(C(=O)O)cc1)c1ccc(O)cc1,4
OC1=CC=C(C=C1)N=NC1=CC=CC=C1,-,R1204904,M25601,-,-,4-hydroxy-azobenzene,Koerner,charochkina,A5793,-,-,-,-0.93,Log unit,25,?C,N(=Nc1ccccc1)c1ccc(O)cc1,2
CN(C)C1C2CC3C(=C(O)C2(O)C(=O)C(C(N)=O)=C1O)C(=O)C1=C(C=CC=C1O)C3(C)O,-,R1204923,M7886,-,-,tetracycline,Koerner,charochkina,A5793,-,-,-,3.3,Log unit,25,?C,OC1=C(C(=O)C2(C(C1N(C)C)CC1C(c3c(c(O)ccc3)C(=O)C1=C2O)(O)C)O)C(=O)N,3
CN(C)C1C2CC3C(=C(O)C2(O)C(=O)C(C(N)=O)=C1[O-])C(=O)C1=C(C=CC=C1O)C3(C)O,-,R1204924,M7886,-,-,tetracycline,Koerner,charochkina,A5793,-,-,-,7.7,Log unit,25,?C,N(C1C2CC3C(c4c(c(O)ccc4)C(=O)C3=C(O)C2(C(=O)C(=C1[O-])C(=O)N)O)(O)C)(C)C,3
CN(C)C1C2C(O)C3C(=C(O)C2(O)C(=O)C(C(N)=O)=C1O)C(=O)C1=C(C=CC=C1O)C3(C)O,-,R1204925,M4749,-,-,Hydroxytetracycline,Koerner,charochkina,A5793,-,-,-,3.2,Log unit,25,?C,OC1=C(C(=O)C2(C(C1N(C)C)C(C1C(c3c(c(O)ccc3)C(=O)C1=C2O)(O)C)O)O)C(=O)N,4
CN(C)C1C2CC3C(=C(O)C2(O)C(=O)C(C(N)=O)=C1O)C(=O)C1=C(C(Cl)=CC=C1O)C3(C)O,-,R1204926,M1743,-,-,Chlorotetracycline,Koerner,charochkina,A5793,-,-,-,3.27,Log unit,25,?C,OC1=C(C(=O)C2(C(C1N(C)C)CC1C(c3c(Cl)ccc(O)c3C(=O)C1=C2O)(O)C)O)C(=O)N,5
CN(C)C1C2CC3C(=C([O-])C2(O)C(=O)C(C(N)=O)=C1[O-])C(=O)C1=C(C(Cl)=CC=C1O)C3(C)O,-,R1204927,M1743,-,-,Chlorotetracycline,Koerner,charochkina,A5793,-,-,-,9.27,Log unit,25,?C,Oc1ccc(Cl)c2c1C(=O)C1=C([O-])C3(C(=O)C(=C(C(C3CC1C2(O)C)N(C)C)[O-])C(=O)N)O,6
OCC1OC(=O)C(O)=C(O)C1O,-,R1204928,M1157750,-,-,glucoascorbic acid,Koerner,charochkina,A5793,-,-,-,4.15,Log unit,25,?C,OC1=C(C(=O)OC(C1O)CO)O,4
OCC(O)C1OC(=O)C(O)=C1[O-],-,R1204929,M1384,-,-,Ascorbic acid,Koerner,charochkina,A5793,-,-,-,12.2,Log unit,25,?C,OC1=C(C(OC1=O)C(O)CO)[O-],3
OCC(O)C(O)C(O)C(O)C=O,-,R1204930,M17194,-,-,glucose,Koerner,charochkina,A5793,-,-,-,12.43,Log unit,25,?C,OC(C=O)C(O)C(O)C(O)CO,1
OCC(O)C(O)C(O)C(=O)CO,-,R1204931,M17863,-,-,sorbose,Koerner,charochkina,A5793,-,-,-,13.855,Log unit,25,?C,OC(C(C(=O)CO)O)C(O)CO,5
OC1=C(C(=O)C([O-])=C(C1=O)N(=O)=O)N(=O)=O,-,R1204939,M1018849,-,-,"2,5-dihydroxy-3,6-dinitrobenzoquinone",Koerner,charochkina,A5793,-,-,-,-0.8,Log unit,25,?C,[O-]C1=C(C(=O)C(=C(N(=O)=O)C1=O)O)N(=O)=O,oh
OC1=C(O)C2=C(C=C1)C(=O)C1=CC=CC=C1C2=O,-,R1204947,M9702,-,-,"1,2-Dihydroxyanthraquinone",Koerner,charochkina,A5793,-,-,-,7.45,Log unit,25,?C,Oc1c(O)c2C(=O)c3ccccc3C(=O)c2cc1,1
[NH2+]C(S)S,-,R1204973,M1157751,-,-,aminomethanedithioic acid,Koerner,charochkina,A5793,-,-,-,2.95,Log unit,25,?C,SC(S)[NH2+],sh
SCC(S)CC=O,-,R1204977,M1034261,-,-,"2,3-Dimercapto-1-propanol",Koerner,charochkina,A5793,-,-,-,8.7,Log unit,25,?C,SC(CC=O)CS,1
[O-]S(=O)(=O)CC(S)CS,-,R1204979,M17385,-,-,"2,3-dimercapto-1-propansulfonic acid",Koerner,charochkina,A5793,-,-,-,8.9,Log unit,25,?C,SC(CS(=O)(=O)[O-])CS,1
[NH2+]S(O)(=O)=O,-,R1205006,M1157752,-,-,Sulphamic acid,Koerner,charochkina,A5793,-,-,-,1,Log unit,25,?C,OS(=O)(=O)[NH2+],so3h
OP(O)(=O)CP(O)(O)=O,-,R1205017,M26060,-,-,Methylenediphosphonic acid,Koerner,charochkina,A5793,-,-,-,2,Log unit,25,?C,OP(=O)(CP(=O)(O)O)O,po2h
OP(O)(=O)CP(O)([O-])=O,-,R1205018,M26060,-,-,Methylenediphosphonic acid,Koerner,charochkina,A5793,-,-,-,2.3,Log unit,25,?C,OP(=O)(CP(=O)([O-])O)O,2
OP([O-])(=O)CP(O)([O-])=O,-,R1205019,M26060,-,-,Methylenediphosphonic acid,Koerner,charochkina,A5793,-,-,-,7.4,Log unit,25,?C,OP(=O)(CP(=O)([O-])O)[O-],po2h
[NH2+]CP(O)(O)=O,-,R1205061,M1157753,-,-,AMINOMETHYLPHOSPHONIC ACID,Koerner,charochkina,A5793,-,-,-,1.85,Log unit,25,?C,OP(=O)(O)C[NH2+],po2h
[NH2+]CP(O)([O-])=O,-,R1205062,M1157753,-,-,AMINOMETHYLPHOSPHONIC ACID,Koerner,charochkina,A5793,-,-,-,5.35,Log unit,25,?C,OP(=O)([O-])C[NH2+],po2h
[NH2+]CCP(O)(O)=O,-,R1205064,M1157754,-,-,2-aminoethylphosphonic acid,Koerner,charochkina,A5793,-,-,-,2.45,Log unit,25,?C,OP(=O)(O)CC[NH2+],po2h
[NH2+]CCP(O)([O-])=O,-,R1205065,M1157754,-,-,2-aminoethylphosphonic acid,Koerner,charochkina,A5793,-,-,-,7,Log unit,25,?C,OP(=O)([O-])CC[NH2+],po2h
[NH2+]CCCCP(O)(O)=O,-,R1205067,M1157755,-,-,4-amino-n-butylphosphonic acid,Koerner,charochkina,A5793,-,-,-,2.55,Log unit,25,?C,OP(=O)(O)CCCC[NH2+],po2h
[NH2+]CCCCP(O)([O-])=O,-,R1205068,M1157755,-,-,4-amino-n-butylphosphonic acid,Koerner,charochkina,A5793,-,-,-,7.55,Log unit,25,?C,OP(=O)([O-])CCCC[NH2+],po2h
[NH2+]CCCCCP(O)(O)=O,-,R1205070,M1157756,-,-,5-amino-n-pentylphosphonic acid,Koerner,charochkina,A5793,-,-,-,2.6,Log unit,25,?C,OP(=O)(O)CCCCC[NH2+],po2h
[NH2+]CCCCCP(O)([O-])=O,-,R1205071,M1157756,-,-,5-amino-n-pentylphosphonic acid,Koerner,charochkina,A5793,-,-,-,7.6,Log unit,25,?C,OP(=O)([O-])CCCCC[NH2+],po2h
OC1=CC=C(CS)C=C1,1073-72-9,R1166080,M51623,-,-,4-METHIOPHENOL,Koerner,Koerner,A5912,-,-,-,9.53,Log unit,25,?C,Oc1ccc(CS)cc1,phenol
OC1=CC2=C(CCC2)C=C1,1470-94-6,R1166081,M25202,-,-,5-INDANOL,Koerner,Koerner,A5912,-,-,-,10.32,Log unit,25,?C,Oc1cc2c(cc1)CCC2,phenol
CC1=C(C=C(O)C=C1)[N+]([O-])=O,2042-14-0,R1166082,M958,-,-,3-NITRO-4-CRESOL,Koerner,Koerner,A5912,-,-,-,8.62,Log unit,25,?C,Oc1ccc(c([N+](=O)[O-])c1)C,phenol
CCC(CC(O)=O)C(O)=O,-,R1203560,M67347,-,-,ethylpyrotartaric acid,Koerner,charochkina,A5793,-,-,-,4.38,Log unit,25,?C,OC(=O)C(CC(=O)O)CC,co2h
CCC(CC)(CC(O)=O)C(O)=O,-,R1203561,M30548,-,-,"alpha,alpha-diethylprotartaric acid",Koerner,charochkina,A5793,-,-,-,4.14,Log unit,25,?C,OC(=O)C(CC(=O)O)(CC)CC,co2h
CCC(C(O)=O)C(CC)(CC)C(O)=O,-,R1203565,M1018353,-,-,triethylprotartaric acid,Koerner,charochkina,A5793,-,-,-,4,Log unit,25,?C,OC(=O)C(C(C(=O)O)CC)(CC)CC,co2h
CC(CC(O)=O)CC(O)=O,-,R1203567,M22829,-,-,beta-Methylglutaric acid,Koerner,charochkina,A5793,-,-,-,4.65,Log unit,25,?C,OC(=O)CC(CC(=O)O)C,co2h
CCC(CC(O)=O)CC(O)=O,-,R1203568,M124337,-,-,beta-ethylglutaric acid,Koerner,charochkina,A5793,-,-,-,4.585,Log unit,25,?C,OC(=O)CC(CC(=O)O)CC,co2h
CCCC(CC(O)=O)CC(O)=O,-,R1203570,M1018354,-,-,beta-n-propylglutaric acid,Koerner,charochkina,A5793,-,-,-,4.61,Log unit,25,?C,OC(=O)CC(CC(=O)O)CCC,1
CC(C)C(CC(O)=O)CC(O)=O,-,R1203571,M73871,-,-,beta-Isopropylglutaric acid,Koerner,charochkina,A5793,-,-,-,4.615,Log unit,25,?C,OC(=O)CC(CC(=O)O)C(C)C,2
OC(=O)CC=CC(O)=O,-,R1203603,M987360,-,-,Glutaconic acid,Koerner,charochkina,A5793,-,-,-,4.1,Log unit,25,?C,OC(=O)CC=CC(=O)O,co2h
OC(=O)C1CCC(C1)C(O)=O,-,R1203626,M28942,-,-,"trans-cyclopentane-1,3-dicarboxylic acid",Koerner,charochkina,A5793,-,-,-,4.66,Log unit,25,?C,OC(=O)C1CC(C(=O)O)CC1,co2h
OC(=O)CC1CCCC1C(O)=O,-,R1203628,M1018364,-,-,trans-cyclopentane-1-carboxylic acid-2-acetic acid,Koerner,charochkina,A5793,-,-,-,4.7,Log unit,25,?C,OC(=O)CC1C(C(=O)O)CCC1,co2h
OC(=O)CC1CCCC1CC(O)=O,-,R1203630,M1018365,-,-,"trans-cyclopentyl-1,2-diacetic acid",Koerner,charochkina,A5793,-,-,-,4.73,Log unit,25,?C,OC(=O)CC1C(CC(=O)O)CCC1,1
OC(=O)C1CCCC(C1)C(O)=O,-,R1203635,M1017980,-,-,"trans-cyclohexane-1,3-dicarboxylic acid",Koerner,charochkina,A5793,-,-,-,4.61,Log unit,25,?C,OC(=O)C1CC(C(=O)O)CCC1,co2h
OC(=O)C1CCCC=C1C([O-])=O,-,R1203641,M38745,-,-,"1-cyclohexene-1,6-dicarboxylic acid",Koerner,charochkina,A5793,-,-,-,5.31,Log unit,25,?C,[O-]C(=O)C1=CCCCC1C(=O)O,1
OC(=O)CC1CCCCC1CC(O)=O,-,R1203645,M1018367,-,-,"trans-cyclohexyl-1,2-diacetic acid",Koerner,charochkina,A5793,-,-,-,4.68,Log unit,25,?C,OC(=O)CC1C(CC(=O)O)CCCC1,1
OC(=O)C1CCCCC1C1CCCCC1C(O)=O,-,R1203652,M1018372,-,-,perhydrodiphenic acid,Koerner,charochkina,A5793,-,-,-,5.2,Log unit,25,?C,OC(=O)C1C(C2C(C(=O)O)CCCC2)CCCC1,1
CC1(C)C(CCC1C(O)=O)C(O)=O,-,R1203662,M1018376,-,-,"cyclobutan-1,3-dicarboxlic acid-2,2-dimethyl",Koerner,charochkina,A5793,-,-,-,4.88,Log unit,25,?C,OC(=O)C1C(C(C(=O)O)CC1)(C)C,co2h
CC1(C)C(CCC1(C)C(O)=O)C(O)=O,-,R1203666,M6436,-,-,"cyclopentan-1,3-dicarboxlic acid-1,2,2-trimethyl",Koerner,charochkina,A5793,-,-,-,5.01,Log unit,25,?C,OC(=O)C1C(C(C(=O)O)(C)CC1)(C)C,co2h
CC1(C)C(CCC1(C)C(O)=O)C([O-])=O,-,R1203667,M6436,-,-,"cyclopentan-1,3-dicarboxlic acid-1,2,2-trimethyl",Koerner,charochkina,A5793,-,-,-,5.53,Log unit,25,?C,[O-]C(=O)C1C(C(C(=O)O)(C)CC1)(C)C,co2h
OC(=O)CC1C2CC(C3C4CCC(C4)C23)C1C(O)=O,-,R1203671,M1018380,-,-,alpha-trans-C15H20O4-dicarboxylic acid,Koerner,charochkina,A5793,-,-,-,4.55,Log unit,25,?C,OC(=O)CC1C2C3C4CC(CC4)C3C(C2)C1C(=O)O,co2h
OC(=O)C1CCCC(C1C(O)=O)C(O)=O,-,R1203672,M1017973,-,-,"1,2,3-cyclohexane-tricarboxylic acid",Koerner,charochkina,A5793,-,-,-,4.36,Log unit,25,?C,OC(=O)C1C(C(=O)O)CCCC1C(=O)O,1
OC(=O)C(Cl)C(Cl)C([O-])=O,-,R1203718,M123283,-,-,"rac.-alpha,alpha'-dichlorosuccinic acid",Koerner,charochkina,A5793,-,-,-,2.8,Log unit,25,?C,[O-]C(=O)C(Cl)C(Cl)C(=O)O,co2h
OC(=O)C(Cl)C(Br)C(O)=O,-,R1203719,M1018388,-,-,threo-alpha-chloro-alpha'-bromo-succinic acid,Koerner,charochkina,A5793,-,-,-,1.76,Log unit,25,?C,OC(=O)C(C(Br)C(=O)O)Cl,co2h
OC(=O)C(Br)C(Br)C([O-])=O,-,R1203722,M21249,-,-,"rac.-alpha,alpha'-dibromo-succinic acid",Koerner,charochkina,A5793,-,-,-,2.67,Log unit,25,?C,[O-]C(=O)C(C(Br)C(=O)O)Br,co2h
OC(CC(O)=O)C(O)=O,-,R1203752,M804,-,-,malic acid,Koerner,charochkina,A5793,-,-,-,3.5,Log unit,25,?C,OC(=O)C(CC(=O)O)O,2
OC(=O)CC(CC(O)=O)OC(O)=O,-,R1203755,M1018397,-,-,citric acid,Koerner,charochkina,A5793,-,-,-,2.9,Log unit,25,?C,OC(=O)CC(OC(=O)O)CC(=O)O,co2h
[NH2+]CC(O)=O,-,R1203758,M1157688,-,-,"glycine, amino-acetic acid",Koerner,charochkina,A5793,-,-,-,2.328,Log unit,25,?C,OC(=O)C[NH2+],co2h
OCC[N+](CCO)CC(O)=O,-,R1203773,M1157689,-,-,"N,N-di(beta-hydroxyethyl)-glycine",Koerner,charochkina,A5793,-,-,-,1.99,Log unit,25,?C,OC(=O)C[N+](CCO)CCO,co2h
CC([NH2+])C(O)=O,-,R1203777,M1157690,-,-,DL-Alanine,Koerner,charochkina,A5793,-,-,-,2.3245,Log unit,25,?C,OC(=O)C([NH2+])C,co2h
[NH2+]CCC(O)=O,-,R1203787,M1157691,-,-,beta-amino-propionic acid,Koerner,charochkina,A5793,-,-,-,3.58,Log unit,25,?C,OC(=O)CC[NH2+],co2h
CCC([NH2+])C(O)=O,-,R1203791,M1157692,-,-,DL-alpha-Amino-n-butyric acid,Koerner,charochkina,A5793,-,-,-,2.287,Log unit,25,?C,OC(=O)C([NH2+])CC,co2h
[NH2+]CCCC(O)=O,-,R1203795,M1157693,-,-,gamma-amino-n-butyric acid,Koerner,charochkina,A5793,-,-,-,4.02815,Log unit,25,?C,OC(=O)CCC[NH2+],co2h
CC(C)([NH2+])C(O)=O,-,R1203798,M1157694,-,-,alpha-amino-iso-butyric acid,Koerner,charochkina,A5793,-,-,-,2.3685,Log unit,25,?C,OC(=O)C([NH2+])(C)C,co2h
CCCC([NH2+])C(O)=O,-,R1203801,M1157695,-,-,dl-alpha-amino-n-valeric acid,Koerner,charochkina,A5793,-,-,-,2.3135,Log unit,25,?C,OC(=O)C([NH2+])CCC,co2h
CCC([NH2+])CC(O)=O,-,R1203803,M1157696,-,-,beta-amino-n-valeric acid,Koerner,charochkina,A5793,-,-,-,4.02,Log unit,25,?C,OC(=O)CC([NH2+])CC,co2h
[NH2+]CCCCC(O)=O,-,R1203805,M1157697,-,-,delta-Amino-n-valeric acid,Koerner,charochkina,A5793,-,-,-,4.235,Log unit,25,?C,OC(=O)CCCC[NH2+],co2h
CC(C)C([NH2+])C(O)=O,-,R1203807,M1157698,-,-,DL-Valine,Koerner,charochkina,A5793,-,-,-,2.292,Log unit,25,?C,OC(=O)C([NH2+])C(C)C,co2h
CCCCC([NH2+])C(O)=O,-,R1203809,M1157699,-,-,DL-Norleucine,Koerner,charochkina,A5793,-,-,-,2.3295,Log unit,25,?C,OC(=O)C([NH2+])CCCC,co2h
[NH2+]CCCCCC(O)=O,-,R1203811,M1157700,-,-,epsilon-amino-n-capronic acid,Koerner,charochkina,A5793,-,-,-,4.43,Log unit,25,?C,OC(=O)CCCCC[NH2+],co2h
CC(C)CC([NH2+])C(O)=O,-,R1203813,M1157701,-,-,DL-Leucine,Koerner,charochkina,A5793,-,-,-,2.3275,Log unit,25,?C,OC(=O)C([NH2+])CC(C)C,co2h
CCC(C)C([NH2+])C(O)=O,-,R1203815,M1157702,-,-,DL-Isoleucine,Koerner,charochkina,A5793,-,-,-,2.325,Log unit,25,?C,OC(=O)C([NH2+])C(C)CC,co2h
[NH2+]CCCCCCCCCCCC(O)=O,-,R1203817,M1157703,-,-,omega-amino-n-dodecanic acid,Koerner,charochkina,A5793,-,-,-,4.648,Log unit,25,?C,OC(=O)CCCCCCCCCCC[NH2+],co2h
[NH2+]C1(CCCCC1)C(O)=O,-,R1203818,M1157704,-,-,"1,1-amino-cyclohexane-carboxylic acid",Koerner,charochkina,A5793,-,-,-,2.66,Log unit,25,?C,OC(=O)C1(CCCCC1)[NH2+],co2h
[NH2+]C1CCCCC1C(O)=O,-,R1203820,M1157705,-,-,"1,2-amino-cyclohexane-carboxylic acid",Koerner,charochkina,A5793,-,-,-,3.59,Log unit,25,?C,OC(=O)C1C([NH2+])CCCC1,co2h
[NH2+]C1CCC(CC1)C(O)=O,-,R1203823,M1157706,-,-,"1,4-amino-cyclohexane-carboxylic acid",Koerner,charochkina,A5793,-,-,-,4.3,Log unit,25,?C,OC(=O)C1CCC([NH2+])CC1,co2h
[NH2+]CCCC([NH2+])C(O)=O,-,R1203825,M1157707,-,-,ornithine,Koerner,charochkina,A5793,-,-,-,1.94,Log unit,25,?C,OC(=O)C([NH2+])CCC[NH2+],co2h
NC(CCC[NH2+])C([O-])=O,-,R1203826,M1157708,-,-,ornithine,Koerner,charochkina,A5793,-,-,-,8.65,Log unit,25,?C,NC(C(=O)[O-])CCC[NH2+],nr2
NCCCC(N)C([O-])=O,-,R1203827,M17346,-,-,ornithine,Koerner,charochkina,A5793,-,-,-,10.76,Log unit,25,?C,NCCCC(C(=O)[O-])N,4
NC(=[NH2+])NCCCC([NH2+])C(O)=O,-,R1203828,M1157709,-,-,ARGININE,Koerner,charochkina,A5793,-,-,-,2.06,Log unit,25,?C,OC(=O)C([NH2+])CCCNC(=[NH2+])N,co2h
NC(CCCNC(N)=[NH2+])C([O-])=O,-,R1203829,M17386,-,-,ARGININE,Koerner,charochkina,A5793,-,-,-,9.1,Log unit,25,?C,NC(C(=O)[O-])CCCNC(=[NH2+])N,4
NC(CCCNC(N)=N)C([O-])=O,-,R1203830,M17386,-,-,ARGININE,Koerner,charochkina,A5793,-,-,-,13.2,Log unit,25,?C,N=C(NCCCC(C(=O)[O-])N)N,neth
[NH2+]C(CC1=CNC=[N+]1)C(O)=O,-,R1203831,M1157710,-,-,histidine,Koerner,charochkina,A5793,-,-,-,1.8,Log unit,25,?C,OC(=O)C(Cc1[n+]c[nH]c1)[NH2+],co2h
[NH2+]C(CC1=CNC=N1)C([O-])=O,-,R1203832,M1157711,-,-,histidine,Koerner,charochkina,A5793,-,-,-,6,Log unit,25,?C,n1c[nH]cc1CC([NH2+])C(=O)[O-],nethR
NC(CC1=CNC=N1)C([O-])=O,-,R1203833,M3941,-,-,histidine,Koerner,charochkina,A5793,-,-,-,9,Log unit,25,?C,NC(Cc1nc[nH]c1)C(=O)[O-],4
NC(=O)NCCCC([NH2+])C(O)=O,-,R1203834,M1157712,-,-,L-citrulline,Koerner,charochkina,A5793,-,-,-,2.43,Log unit,25,?C,OC(=O)C(CCCNC(=O)N)[NH2+],co2h
NC(CCCNC(N)=O)C([O-])=O,-,R1203835,M20262,-,-,L-citrulline,Koerner,charochkina,A5793,-,-,-,9.4,Log unit,25,?C,NC(CCCNC(=O)N)C(=O)[O-],6