Smiles,CASRN,Record ID,Molecule ID,External ID,N,Name,Introducer,Modifer,Article ID,PUBMED ID,PAGE,TABLE,pKa,pKa Unit,Temperature,Temperature Unit,Ionizable center smiles,IC group
CN(N)C1=C(C)C=C(C)C=C1,-,R1206524,M1157899,-,-,"1-methyl-1-(2,4-dimethyl)phenylhydrazine",Koerner,charochkina,A5793,-,-,-,6.03,Log unit,25,?C,NN(c1ccc(cc1C)C)C,3
CN(N)C1=CC=CC=C1N(=O)=O,-,R1206525,M1157900,-,-,1-methyl-1-(2-nitro)phenylhydrazine,Koerner,charochkina,A5793,-,-,-,4.32,Log unit,25,?C,NN(c1ccccc1N(=O)=O)C,3
CN(N)C1=CC=CC=C1,-,R1206526,M22581,-,-,1-Methyl-1-phenylhydrazine,Koerner,charochkina,A5793,-,-,-,4.98,Log unit,25,?C,NN(c1ccccc1)C,3
CC1=CC=CC=C1NN,-,R1206527,M66762,-,-,(2-methyl)phenylhydrazine,Koerner,charochkina,A5793,-,-,-,5.32,Log unit,25,?C,NNc1ccccc1C,4
CC1=CC(NN)=CC=C1,-,R1206528,M66808,-,-,(3-methyl)phenylhydrazine,Koerner,charochkina,A5793,-,-,-,5.345,Log unit,25,?C,NNc1cccc(c1)C,4
CC1=CC=C(NN)C=C1,-,R1206529,M21445,-,-,(4-methyl)phenylhydrazine,Koerner,charochkina,A5793,-,-,-,5.405,Log unit,25,?C,NNc1ccc(cc1)C,4
CN(N)C1=CC=CC=C1C,-,R1206530,M1157901,-,-,1-methyl-1-(o-tolyl)hydrazine,Koerner,charochkina,A5793,-,-,-,5.29,Log unit,25,?C,NN(c1ccccc1C)C,3
CN(N)C1=CC=CC(C)=C1,-,R1206531,M1157902,-,-,1-methyl-1-(m-tolyl)hydrazine,Koerner,charochkina,A5793,-,-,-,5.09,Log unit,25,?C,NN(c1cccc(c1)C)C,3
CN(N)C1=CC=C(C)C=C1,-,R1206532,M1157903,-,-,1-methyl-1-(p-tolyl)hydrazine,Koerner,charochkina,A5793,-,-,-,5.3,Log unit,25,?C,NN(c1ccc(cc1)C)C,3
NNC1=CC2=C(C=CC=C2)C=C1,-,R1206533,M727864,-,-,naphthylhydrazine,Koerner,charochkina,A5793,-,-,-,5.06,Log unit,25,?C,NNc1cc2ccccc2cc1,4
NNC1=CC=CC=C1N(=O)=O,-,R1206534,M72260,-,-,(2-nitro)phenylhydrazine,Koerner,charochkina,A5793,-,-,-,3.5,Log unit,25,?C,NNc1ccccc1N(=O)=O,4
NNC1=CC(=CC=C1)N(=O)=O,-,R1206535,M67238,-,-,(3-nitro)phenylhydrazine,Koerner,charochkina,A5793,-,-,-,4.375,Log unit,25,?C,NNc1cccc(c1)N(=O)=O,4
NNC1=CC=C(C=C1)N(=O)=O,-,R1206536,M18310,-,-,(4-nitro)phenylhydrazine,Koerner,charochkina,A5793,-,-,-,3.82,Log unit,25,?C,NNc1ccc(cc1)N(=O)=O,4
NNCC(F)(F)C(F)(F)C(F)(F)C(F)F,-,R1206537,M1157904,-,-,"(2,2,3,3,4,4,5,5-octafluoro)pentyl-hydrazine",Koerner,charochkina,A5793,-,-,-,5.34,Log unit,25,?C,NNCC(C(C(C(F)F)(F)F)(F)F)(F)F,4
NNC1=CC=C(OC2=CC=CC=C2)C=C1,-,R1206538,M1157905,-,-,4-phenoxyphenylhydrazine,Koerner,charochkina,A5793,-,-,-,5.36,Log unit,25,?C,NNc1ccc(Oc2ccccc2)cc1,4
NNC1=CC=CC=C1,-,R1206539,M3884,-,-,Phenylhydrazine,Koerner,charochkina,A5793,-,-,-,5.235,Log unit,25,?C,NNc1ccccc1,4
CC(NN)C(F)(F)C(F)F,-,R1206540,M1157906,-,-,"(2,2,3,3-tetrafluoro-1-methyl)propylhydrazine",Koerner,charochkina,A5793,-,-,-,5.59,Log unit,25,?C,NNC(C(C(F)F)(F)F)C,4
NNCC(F)(F)F,-,R1206541,M74931,-,-,"(2,2,2-trifluoro)ethylhydrazine",Koerner,charochkina,A5793,-,-,-,5.38,Log unit,25,?C,NNCC(F)(F)F,4
NNC(C1=CC=CC=C1)C(F)(F)F,-,R1206542,M1157907,-,-,(alpha-trifluoromethyl)benzylhydrazine,Koerner,charochkina,A5793,-,-,-,4.88,Log unit,25,?C,NNC(c1ccccc1)C(F)(F)F,4
NC(CC(N)=NO)=NO,-,R1206544,M1106661,-,-,"1,3-diamino-1,3-bishydroxyiminopropane",Koerner,charochkina,A5793,-,-,-,4.43,Log unit,25,?C,N(=C(N)CC(=NO)N)O,neth
NC(=NO)C(N)=NO,-,R1206545,M27120,-,-,"1,2-diamino-1,2-bishydroxyiminoethane",Koerner,charochkina,A5793,-,-,-,2.6,Log unit,25,?C,N(=C(N)C(=NO)N)O,neth
NC(CCC(N)=NO)=NO,-,R1206546,M655335,-,-,"1,4-diamino-1,4-bishydroxyiminobutane",Koerner,charochkina,A5793,-,-,-,5.63,Log unit,25,?C,N(=C(CCC(=NO)N)N)O,neth
NC(CCC(N)=[N+]O)=NO,-,R1206547,M1157908,-,-,"1,4-diamino-1,4-bishydroxyiminobutane",Koerner,charochkina,A5793,-,-,-,3.3,Log unit,25,?C,N(=C(CCC(=[N+]O)N)N)O,neth
CN=C1CCCCC1C,-,R1206550,M1106664,-,-,C-N-dimethylcyclohexanimine,Koerner,charochkina,A5793,-,-,-,9.47,Log unit,25,?C,N(=C1CCCCC1C)C,neth
CN=C1CCCCC1,-,R1206552,M1106666,-,-,N-methylcyclohexanimine,Koerner,charochkina,A5793,-,-,-,9.43,Log unit,25,?C,N(=C1CCCCC1)C,neth
CCNC1=CC(CC(C)(C)C1)=NCC,-,R1206553,M1106667,-,-,"1-ethylamino-3-ethylimino-5,5-dimethylcyclohex-1-ene",Koerner,charochkina,A5793,-,-,-,12.13,Log unit,25,?C,N(=C1C=C(CC(C)(C)C1)NCC)CC,neth
CC(=N)NC1=CC=C(Cl)C=C1,-,R1206554,M1106668,-,-,N-acetimido-4-chloroaniline,Koerner,charochkina,A5793,-,-,-,9.5,Log unit,25,?C,N=C(Nc1ccc(Cl)cc1)C,neth
CCOC1=CC=C(NC(C)=NC2=CC=C(OCC)C=C2)C=C1,-,R1206555,M18391,-,-,4-ethoxy-N-[1-(p-ethoxyphenylimino)ethyl]aniline,Koerner,charochkina,A5793,-,-,-,9.27,Log unit,25,?C,N(=C(Nc1ccc(OCC)cc1)C)c1ccc(cc1)OCC,neth
ClC1=CC=C(C=NC2=CC=CC=C2)C=C1,-,R1206556,M1106669,-,-,N-4-chlorobenzylideneaniline,Koerner,charochkina,A5793,-,-,-,2.8,Log unit,25,?C,N(=Cc1ccc(Cl)cc1)c1ccccc1,neth
CC(NC1=CC=CC=C1)=NC1=CC=CC=C1,-,R1206557,M22651,-,-,N-(1-phenyliminoethyl)aniline,Koerner,charochkina,A5793,-,-,-,8.298,Log unit,25,?C,N(=C(Nc1ccccc1)C)c1ccccc1,neth
C1=CC=C(C=C1)N=NC1=CC=CC=C1,-,R1206558,M2085,-,-,azobenzene,Koerner,charochkina,A5793,-,-,-,-2.78,Log unit,25,?C,N(=Nc1ccccc1)c1ccccc1,neth
CC[N+](CC)C1=CC=C(C=C1)N=NC1=CC=C(O)C=C1,-,R1206559,M1157909,-,-,4-diethylamino-4'-hydroxyazobenzene,Koerner,charochkina,A5793,-,-,-,-1.8,Log unit,25,?C,N(=Nc1ccc(O)cc1)c1ccc([N+](CC)CC)cc1,2
CC[N+](CC)C1=CC=C(C=C1)N=NC1=CC=C(C=C1)C(=O)OC,-,R1206560,M1157910,-,-,4-diethylamino-4'-methoxycarbonylazobenzene,Koerner,charochkina,A5793,-,-,-,-2.7,Log unit,25,?C,N(=Nc1ccc(cc1)C(=O)OC)c1ccc([N+](CC)CC)cc1,1
COC1=CC=C(C=C1)N=NC1=CC=C(C=C1)[N+](C)C,-,R1206561,M1157911,-,-,4-dimethylamino-4'-methoxyazobenzene,Koerner,charochkina,A5793,-,-,-,-2.13,Log unit,25,?C,N(=Nc1ccc(OC)cc1)c1ccc([N+](C)C)cc1,1
CC1=CC(C)=C(N=NC2=C(C)C=C(O)C=C2C)C(C)=C1,-,R1206562,M1106670,-,-,"4-hydroxy-2,2',4',6,6'-pentamethylazobenzene",Koerner,charochkina,A5793,-,-,-,-1.3,Log unit,25,?C,N(=Nc1c(cc(O)cc1C)C)c1c(cc(C)cc1C)C,neth
O=N(=O)C1=CC=C(C=C1)N=NC1=CC=CC=C1,-,R1206563,M26972,-,-,4-Nitroazobenzene,Koerner,charochkina,A5793,-,-,-,-3.47,Log unit,25,?C,N(=Nc1ccccc1)c1ccc(N(=O)=O)cc1,neth
NC(=N)CC1=CC=CC=C1,-,R1206564,M723353,-,-,amidinomethyl-benzzne,Koerner,charochkina,A5793,-,-,-,11.87,Log unit,25,?C,N=C(Cc1ccccc1)N,neth
NC(=N)C1=CC=CC=C1,-,R1206565,M25566,-,-,guanidinobenzene,Koerner,charochkina,A5793,-,-,-,11.3,Log unit,25,?C,N=C(c1ccccc1)N,neth
NC(=N)C1=CC=C(O)C=C1,-,R1206566,M491777,-,-,4-hydroxy-guanidinobenzene,Koerner,charochkina,A5793,-,-,-,12.5,Log unit,25,?C,N=C(c1ccc(O)cc1)N,neth
NC(=N)C1=CC=C(C=C1)C([O-])=O,-,R1206567,M272472,-,-,4-carboxy-guanidinobenzene,Koerner,charochkina,A5793,-,-,-,10.9,Log unit,25,?C,N=C(c1ccc(C(=O)[O-])cc1)N,neth
COC1=CC=C(C=C1)C(N)=N,-,R1206568,M1106671,-,-,4-methoxy-guanidinobenzene,Koerner,charochkina,A5793,-,-,-,11.8,Log unit,25,?C,N=C(c1ccc(OC)cc1)N,neth
NC(=N)C1=CC=C(C=C1)N(=O)=O,-,R1206569,M82036,-,-,4-nitro-guanidinobenzene,Koerner,charochkina,A5793,-,-,-,9.58,Log unit,25,?C,N=C(c1ccc(N(=O)=O)cc1)N,neth
CC(O)(C(N)=N)C1=CC=CC=C1,-,R1206570,M1106672,-,-,(1-amidino-1-hydroxy)ethylbenzene,Koerner,charochkina,A5793,-,-,-,10.96,Log unit,25,?C,N=C(C(c1ccccc1)(O)C)N,neth
CC1=CC(=C(N)C(=C1)N(=O)=O)N(=O)=O,-,R1205985,M31212,-,-,"4-Methyl-2,6-dinitroaniline",Koerner,charochkina,A5793,-,-,-,-4.505,Log unit,25,?C,Nc1c(cc(cc1N(=O)=O)C)N(=O)=O,nr2
CC1=C(C=CC(N)=C1)N(=O)=O,-,R1205986,M22405,-,-,3-methyl-4-nitro-aniline,Koerner,charochkina,A5793,-,-,-,1.57,Log unit,25,?C,Nc1ccc(c(C)c1)N(=O)=O,nr2
CC1=C(C=C(N)C=C1)N(=O)=O,-,R1205987,M19007,-,-,4-methyl-3-nitro-aniline,Koerner,charochkina,A5793,-,-,-,2.995,Log unit,25,?C,Nc1ccc(C)c(N(=O)=O)c1,nr2
CC1=C(N)C=CC(=C1)N(=O)=O,-,R1205988,M13231,-,-,2-methyl-4-nitroaniline,Koerner,charochkina,A5793,-,-,-,1.04,Log unit,25,?C,Nc1ccc(cc1C)N(=O)=O,nr2
CC1=C(N)C=C(C=C1)N(=O)=O,-,R1205989,M18289,-,-,2-Methyl-5-nitroaniline,Koerner,charochkina,A5793,-,-,-,2.32,Log unit,25,?C,Nc1c(ccc(c1)N(=O)=O)C,nr2
CC1=CC(=CC(N)=C1)N(=O)=O,-,R1205990,M1107103,-,-,3-methyl-5-nitroaniline,Koerner,charochkina,A5793,-,-,-,2.38,Log unit,25,?C,Nc1cc(cc(c1)N(=O)=O)C,nr2
NC1=CC=CC=C1N(=O)=O,-,R1206005,M2166,-,-,2-nitroaniline,Koerner,charochkina,A5793,-,-,-,-0.255,Log unit,25,?C,Nc1ccccc1N(=O)=O,nr2
NC1=CC=C(C=C1)N(=O)=O,-,R1206007,M10872,-,-,4-NITRO-ANILINE,Koerner,charochkina,A5793,-,-,-,1.02,Log unit,25,?C,Nc1ccc(cc1)N(=O)=O,nr2
NC1=CC=C(CC2=CC=C(C=C2)N(=O)=O)C=C1,-,R1206008,M1107109,-,-,4-(p-nitro)benzylaniline,Koerner,charochkina,A5793,-,-,-,4.45,Log unit,25,?C,Nc1ccc(cc1)Cc1ccc(N(=O)=O)cc1,nr2
O=N(=O)C1=CC=C(NC2=CC=C(C=C2)N(=O)=O)C=C1,-,R1206009,M70254,-,-,4-nitro-N-(4-nitro)phenylaniline,Koerner,charochkina,A5793,-,-,-,-6.2,Log unit,25,?C,N(c1ccc(N(=O)=O)cc1)c1ccc(N(=O)=O)cc1,nr2
NC1=CC=C(NC2=CC=C(C=C2)N(=O)=O)C=C1,-,R1206012,M30937,-,-,4-(p-nitro)phenylaminoaniline,Koerner,charochkina,A5793,-,-,-,4.38,Log unit,25,?C,Nc1ccc(cc1)Nc1ccc(N(=O)=O)cc1,4
NC1=CC(=C(C=C1)N(=O)=O)C(F)(F)F,-,R1206016,M66256,-,-,4-Nitro-3-trifluoromethylaniline,Koerner,charochkina,A5793,-,-,-,-0.05,Log unit,25,?C,Nc1ccc(N(=O)=O)c(C(F)(F)F)c1,nr2
NC1=CC=C(NC2=CC=CC=C2)C=C1,-,R1206023,M18371,-,-,4-phenylaminoaniline,Koerner,charochkina,A5793,-,-,-,5.2,Log unit,25,?C,Nc1ccc(Nc2ccccc2)cc1,4
CC1=C(C)C(=C(C)C(C)=C1N)N(=O)=O,-,R1206035,M32800,-,-,"2,3,5,6-TETRAMETHYL-4-NITROANILINE",Koerner,charochkina,A5793,-,-,-,2.36,Log unit,25,?C,Nc1c(c(c(N(=O)=O)c(c1C)C)C)C,nr2
CCN(CC)C1=CC=C(C=C1)N=NC1=CC=C(C=C1)C(=O)OC,-,R1206060,M1106657,-,-,4-diethylamino-4'-methoxycarbonylazobenzene,Koerner,charochkina,A5793,-,-,-,-2.7,Log unit,25,?C,N(=Nc1ccc(N(CC)CC)cc1)c1ccc(cc1)C(=O)OC,neth
C[N+](C)C1=CC=C(C=C1)N=NC1=CC=CC=C1,-,R1206062,M1157848,-,-,4-dimethylaminoazobenzene,Koerner,charochkina,A5793,-,-,-,-1.3,Log unit,25,?C,N(=Nc1ccc([N+](C)C)cc1)c1ccccc1,1
C[N+](C)C1=CC=C(C=C1)N=NC1=CC=C(O)C=C1,-,R1206065,M1157849,-,-,4-dimethylamino-4'-hydroxyazobenzene,Koerner,charochkina,A5793,-,-,-,-1.8,Log unit,25,?C,N(=Nc1ccc(O)cc1)c1ccc([N+](C)C)cc1,2
CN(C)C1=CC=C(C=C1)N=NC1=CC=C(C=C1)N(=O)=O,-,R1206069,M26974,-,-,4-dimethylamino-4'-nitroazobenzene,Koerner,charochkina,A5793,-,-,-,1.81,Log unit,25,?C,N(c1ccc(N=Nc2ccc(N(=O)=O)cc2)cc1)(C)C,nr2
CNC1=CC=C(C=C1SC)N=N,-,R1206070,M1107127,-,-,4-methylamino-3-methylmercaptoazobenzene,Koerner,charochkina,A5793,-,-,-,2.03,Log unit,25,?C,N=Nc1cc(SC)c(cc1)NC,nr2
CNC1=C(C)C=C(C=C1)N=N,-,R1206071,M1107128,-,-,3-methyl-4-methylaminoazobenzene,Koerner,charochkina,A5793,-,-,-,2.94,Log unit,25,?C,N=Nc1ccc(c(C)c1)NC,nr2
NCCC1=CC=C(O)C(O)=C1,-,R1206076,M12068,-,-,"1-(2-amino)ethyl-3,4-dihydroxybenzene",Koerner,charochkina,A5793,-,-,-,8.925,Log unit,25,?C,NCCc1ccc(O)c(O)c1,1
NCCC1=CC=C([O-])C(O)=C1,-,R1206077,M12068,-,-,"1-(2-amino)ethyl-3,4-dihydroxybenzene",Koerner,charochkina,A5793,-,-,-,10.63,Log unit,25,?C,Oc1c([O-])ccc(CCN)c1,nr2
NCCC1=CC=C(O)C=C1,-,R1206078,M2404,-,-,1-(2-amino)ethyl-4-hydroxybenzene,Koerner,charochkina,A5793,-,-,-,9.7,Log unit,25,?C,NCCc1ccc(O)cc1,oh
NCCC1=CC=C([O-])C=C1,-,R1206079,M2404,-,-,1-(2-amino)ethyl-4-hydroxybenzene,Koerner,charochkina,A5793,-,-,-,10.9,Log unit,25,?C,[O-]c1ccc(CCN)cc1,nr2
NCC(O)C1=CC=CC(O)=C1,-,R1206082,M21392,-,-,1-(2-amino-1-hydroxy)ethyl-3-hydroxybenzene,Koerner,charochkina,A5793,-,-,-,9.5,Log unit,25,?C,Oc1cccc(C(O)CN)c1,nr2
NCC(O)C1=CC=C(O)C=C1,-,R1206083,M15373,-,-,1-(2-amino-1-hydroxy)ethyl-4-hydroxybenzene,Koerner,charochkina,A5793,-,-,-,9.549999,Log unit,25,?C,Oc1ccc(C(O)CN)cc1,nr2
CC(N)CCCC1=CC=C(O)C=C1,-,R1206088,M1107129,-,-,1-(4-amino)pentyl-4-hydroxybenzene,Koerner,charochkina,A5793,-,-,-,9.4,Log unit,25,?C,Oc1ccc(CCCC(N)C)cc1,nr2
CNCC(O)C1=CC=C(O)C(O)=C1,-,R1206105,M10959,-,-,"1,2-dihydroxy-4-(1-hydroxy-2-methylamino)ethylbenzene",Koerner,charochkina,A5793,-,-,-,8.5,Log unit,25,?C,N(CC(c1ccc(O)c(O)c1)O)C,3
CNCC(O)C1=CC=C(O)C([O-])=C1,-,R1206106,M10959,-,-,"1,2-dihydroxy-4-(1-hydroxy-2-methylamino)ethylbenzene",Koerner,charochkina,A5793,-,-,-,10.5,Log unit,25,?C,[O-]c1c(O)ccc(C(O)CNC)c1,nr2
CNCCC1=CC=C(O)C(O)=C1,-,R1206107,M7298,-,-,"1,2-dihydroxy-4-(2-methylamino)ethylbenzene",Koerner,charochkina,A5793,-,-,-,8.9,Log unit,25,?C,Oc1c(O)ccc(CCNC)c1,2
NNC(=O)C1=CC=CC=C1,-,R1206115,M12115,-,-,hydrazinocarbonylbenzene,Koerner,charochkina,A5793,-,-,-,3.03,Log unit,25,?C,NNC(=O)c1ccccc1,4
CNCC(O)C1=CC(O)=CC=C1,-,R1206116,M10528,-,-,1-hydroxy-3-(1-hydroxy-2-methylamino)ethylbenzene,Koerner,charochkina,A5793,-,-,-,8.875,Log unit,25,?C,Oc1cccc(c1)C(O)CNC,nr2
C[NH2+]CC(O)C1=CC=C(O)C=C1,-,R1206117,M15374,-,-,1-hydroxy-4-(1-hydroxy-2-methylamino)ethylbenzene,Koerner,charochkina,A5793,-,-,-,8.76,Log unit,25,?C,Oc1ccc(C(O)C[NH2+]C)cc1,1
CNCC(O)C1=CC=C(O)C=C1,-,R1206118,M15374,-,-,1-hydroxy-4-(1-hydroxy-2-methylamino)ethylbenzene,Koerner,charochkina,A5793,-,-,-,9.7,Log unit,25,?C,Oc1ccc(C(O)CNC)cc1,nr2
COC1=C(O)C(CN)=CC=C1,-,R1206148,M1107090,-,-,2-hydroxy-3-methoxy-benzylamine,Koerner,charochkina,A5793,-,-,-,11.06,Log unit,25,?C,NCc1cccc(OC)c1O,oh
NCC1=CC=C(C=C1)N(=O)=O,-,R1206162,M31919,-,-,4-Nitrobenzylamine,Koerner,charochkina,A5793,-,-,-,8.505,Log unit,25,?C,NCc1ccc(cc1)N(=O)=O,nr2
NCC1=CC=CC=C1S(N)(=O)=O,-,R1206165,M1157850,-,-,2-sulphamoylbenzylamine,Koerner,charochkina,A5793,-,-,-,8.53,Log unit,25,?C,NCc1c(S(=O)(=O)N)cccc1,4
NCC1=CC(=CC=C1)S(N)(=O)=O,-,R1206166,M1157851,-,-,3-sulphamoylbenzylamine,Koerner,charochkina,A5793,-,-,-,8.55,Log unit,25,?C,NCc1cc(S(=O)(=O)N)ccc1,4
NCC1=CC=C(C=C1)S(N)(=O)=O,-,R1206167,M10873,-,-,4-sulphamoylbenzylamine,Koerner,charochkina,A5793,-,-,-,8.35,Log unit,25,?C,NCc1ccc(S(=O)(=O)N)cc1,4
NC1=CC=C(C=C1)C1=CC=C(C=C1)N(=O)=O,-,R1206172,M120140,-,-,4-amino-4'-nitropiphenyl,Koerner,charochkina,A5793,-,-,-,3.765,Log unit,25,?C,Nc1ccc(cc1)c1ccc(N(=O)=O)cc1,nr2
CC1=CC=CC(N)=C1C1=C(N)C=CC=C1C,-,R1206176,M1107149,-,-,"2,2'-diamino-6,6'-dimethylbiphenyl",Koerner,charochkina,A5793,-,-,-,3.7,Log unit,25,?C,Nc1c(c2c(cccc2C)N)c(ccc1)C,nr2
NC1=CC(O)=C(O)C2=CC=CC=C12,-,R1206207,M1107165,-,-,"1-amino-3,4-dihydroxynaphthalene",Koerner,charochkina,A5793,-,-,-,9.32,Log unit,25,?C,Oc1c(c2ccccc2c(c1)N)O,oh
NC1=C(O)C2=CC=CC=C2C(O)=C1,-,R1206209,M1107166,-,-,"2-amino-1,4-dihydroxynaphthalene",Koerner,charochkina,A5793,-,-,-,9.57,Log unit,25,?C,Oc1c2ccccc2c(O)c(N)c1,2
NC1=CC=C(C2=CC=CC=C12)N(=O)=O,-,R1206248,M67732,-,-,1-amino-4-nitro-naphthalene,Koerner,charochkina,A5793,-,-,-,0.54,Log unit,25,?C,Nc1c2ccccc2c(cc1)N(=O)=O,nr2
NC1=CC2=CC=CC=C2C(=C1)N(=O)=O,-,R1206254,M1107197,-,-,2-amino-4-nitro-naphthalene,Koerner,charochkina,A5793,-,-,-,2.43,Log unit,25,?C,Nc1cc2ccccc2c(c1)N(=O)=O,nr2
NC1=CC2=C(C=C1)C(=CC=C2)N(=O)=O,-,R1206255,M1107198,-,-,2-amino-5-nitro-naphthalene,Koerner,charochkina,A5793,-,-,-,3.01,Log unit,25,?C,Nc1ccc2c(cccc2N(=O)=O)c1,nr2
NC1=CC2=C(C=C1)C=C(C=C2)N(=O)=O,-,R1206256,M147724,-,-,2-amino-6-nitro-naphthalene,Koerner,charochkina,A5793,-,-,-,2.62,Log unit,25,?C,Nc1ccc2cc(ccc2c1)N(=O)=O,nr2
NC1=CC2=C(C=C1)C=CC(=C2)N(=O)=O,-,R1206257,M1107199,-,-,2-amino-7-nitro-naphthalene,Koerner,charochkina,A5793,-,-,-,3.1,Log unit,25,?C,Nc1ccc2ccc(N(=O)=O)cc2c1,nr2
NC1=CC2=C(C=CC=C2N(=O)=O)C=C1,-,R1206258,M1107200,-,-,2-amino-8-nitronaphthalene,Koerner,charochkina,A5793,-,-,-,2.73,Log unit,25,?C,Nc1ccc2cccc(c2c1)N(=O)=O,nr2
NC1=C(N)C2=CC=CC=C2C=C1,-,R1206264,M24122,-,-,"1,2-Diaminonaphthalene",Koerner,charochkina,A5793,-,-,-,4.76,Log unit,25,?C,Nc1c(c2ccccc2cc1)N,4
NC1=CC(N)=C(O)C2=CC=CC=C12,-,R1206267,M1107202,-,-,"1,3-diamino-4-hydroxynaphthalene",Koerner,charochkina,A5793,-,-,-,4.7,Log unit,25,?C,Nc1c2ccccc2c(O)c(N)c1,nr2
NC1=CC([NH2+])=C([O-])C2=CC=CC=C12,-,R1206268,M1157852,-,-,"1,3-diamino-4-hydroxynaphthalene",Koerner,charochkina,A5793,-,-,-,3.14,Log unit,25,?C,Nc1c2ccccc2c([O-])c([NH+])c1,nr2
NCCNCC1=CC=CO1,-,R1206292,M1107212,-,-,2-(2-aminoethylaminomethyl)furan,Koerner,charochkina,A5793,-,-,-,9.795,Log unit,25,?C,NCCNCc1occc1,4
[NH2+]CCNCC1=CC=CO1,-,R1206293,M1157853,-,-,2-(2-aminoethylaminomethyl)furan,Koerner,charochkina,A5793,-,-,-,6.56,Log unit,25,?C,N(Cc1occc1)CC[NH2+],nr2
NCCNCC1=COC=C1,-,R1206294,M1157854,-,-,3-(2-aminoethylaminomethyl)furan,Koerner,charochkina,A5793,-,-,-,9.86,Log unit,25,?C,NCCNCc1cocc1,3
C(C[N+]1CCCCC1)N1CCCCC1,-,R1206342,M1157855,-,-,1-(2-piperidino)ethylpiperidine,Koerner,charochkina,A5793,-,-,-,6.55,Log unit,25,?C,N1(CC[N+]2CCCCC2)CCCCC1,nr2
N1C=CC=C1,-,R1206358,M5422,-,-,pyrrole,Koerner,charochkina,A5793,-,-,-,-3.8,Log unit,25,?C,[nH]1cccc1,nr2
N1C=CC=C1,-,R1206359,M5422,-,-,pyrrole,Koerner,charochkina,A5793,-,-,-,16.8,Log unit,25,?C,[nH]1cccc1,nr2_a
CC1=CC=C(C)N1,-,R1206360,M22803,-,-,"Pyrrole,2,5-dimethyl-",Koerner,charochkina,A5793,-,-,-,-0.71,Log unit,25,?C,[nH]1c(ccc1C)C,nr2
NC1CC(=O)NC1=O,-,R1206362,M1157856,-,-,"Pyrrolidien,3-amino-2,5-dioxo-:",Koerner,charochkina,A5793,-,-,-,5.9,Log unit,25,?C,NC1CC(=O)NC1=O,4
OC(CN1CCCC1)C[N+]1CCCC1,-,R1206379,M1157857,-,-,"Pyrrolidine,1(2-hydroxy-3-pyrrolidine-1-yl)propyl-:",Koerner,charochkina,A5793,-,-,-,8.05,Log unit,25,?C,N1(CCCC1)CC(O)C[N+]1CCCC1,nr2
C[N+]1CCCC1C1=CN=CC=C1,-,R1206385,M1007475,-,-,"Pyrrolidine, 1-methyl-2-(3-pyridy)-:",Koerner,charochkina,A5793,-,-,-,3.4,Log unit,25,?C,n1cccc(c1)C1[N+](CCC1)C,n
NCCNCC1=CC=CS1,-,R1206394,M1107254,-,-,"Thiophene, 2-(2-aminoethylaminomethyl)-:",Koerner,charochkina,A5793,-,-,-,9.7,Log unit,25,?C,NCCNCc1sccc1,4
[NH2+]CCNCC1=CC=CS1,-,R1206395,M1157858,-,-,"Thiophene, 2-(2-aminoethylaminomethyl)-:",Koerner,charochkina,A5793,-,-,-,6.3,Log unit,25,?C,N(Cc1sccc1)CC[NH2+],nr2
NCCNCC1=CC=CS1,-,R1206396,M1107254,-,-,"Thiophene, 2-(2-aminoethylaminomethyl)-:",Koerner,charochkina,A5793,-,-,-,9.8,Log unit,25,?C,NCCNCc1sccc1,4
CC1=NOC=C1,-,R1206398,M1106658,-,-,"Isoxsazole, 3-methyl-",Koerner,charochkina,A5793,-,-,-,-1,Log unit,25,?C,n1occc1C,nethR
CC1=C(C)C(C)=NO1,-,R1206399,M32590,-,-,"Isoxazoline, 3,4,5-trimethyl-",Koerner,charochkina,A5793,-,-,-,-1,Log unit,25,?C,n1oc(C)c(c1C)C,nethR
NCCN1CCOCC1,-,R1206404,M26129,-,-,"Morpholine, N-(2-amino)ethyl-",Koerner,charochkina,A5793,-,-,-,9.45,Log unit,25,?C,NCCN1CCOCC1,3
[NH2+]CCN1CCOCC1,-,R1206405,M1157859,-,-,"Morpholine, N-(2-amino)ethyl-",Koerner,charochkina,A5793,-,-,-,4.84,Log unit,25,?C,N1(CCOCC1)CC[NH2+],nr2
CC(O)CN(CCN1CCOCC1)CC(C)O,-,R1206407,M1157860,-,-,"Morplholine, N-[2-(dis-2-hydroxypropyl)aminoethyl]-",Koerner,charochkina,A5793,-,-,-,7.9,Log unit,25,?C,N(CCN1CCOCC1)(CC(O)C)CC(O)C,4
CC(O)CN(CCCN1CCOCC1)CC(C)O,-,R1206408,M1107259,-,-,"Mokrpholine, N-[3-(bis-2-hydroxpropyl)aminopropyl]-",Koerner,charochkina,A5793,-,-,-,8.4,Log unit,25,?C,N(CCCN1CCOCC1)(CC(O)C)CC(O)C,4
CC(O)C[N+](CCCN1CCOCC1)CC(C)O,-,R1206409,M1157861,-,-,"Mokrpholine, N-[3-(bis-2-hydroxpropyl)aminopropyl]-",Koerner,charochkina,A5793,-,-,-,5.5,Log unit,25,?C,N1(CCOCC1)CCC[N+](CC(O)C)CC(O)C,nr2
OC(CN1CCOCC1)C[N+]1CCOCC1,-,R1206421,M1157862,-,-,"Morpholine, N-(2-hydroxy-3-morpholin)propyl-:",Koerner,charochkina,A5793,-,-,-,5.3,Log unit,25,?C,N1(CCOCC1)CC(O)C[N+]1CCOCC1,nr2
CC1=NCCO1,-,R1206426,M24626,-,-,"Oxazoline, 2-methylo-:",Koerner,charochkina,A5793,-,-,-,5.51,Log unit,25,?C,N1=C(OCC1)C,nethR
CC(=O)N1CCNCC1,-,R1206429,M114827,-,-,"Piperazine, 1-acetyl-",Koerner,charochkina,A5793,-,-,-,7.94,Log unit,25,?C,N1CCN(C(=O)C)CC1,2
NCCN1CCNCC1,-,R1206430,M4505,-,-,"Piperazine, N-2-aminoethyl-",Koerner,charochkina,A5793,-,-,-,9.4,Log unit,25,?C,NCCN1CCNCC1,5
[NH2+]CCN1CCNCC1,-,R1206431,M1157863,-,-,"Piperazine, N-2-aminoethyl-",Koerner,charochkina,A5793,-,-,-,8.37,Log unit,25,?C,N1CCN(CC[NH2+])CC1,2
CN1CCN(CC1)C(=O)C1=CC=CC=C1,-,R1206432,M45466,-,-,"Piperazine, 1-benzoyl-4-methyl-",Koerner,charochkina,A5793,-,-,-,6.78,Log unit,25,?C,N1(CCN(C(=O)c2ccccc2)CC1)C,2
CN1CCN(CC1)C(C1=CC=CC=C1)C1=CC=C(Br)C=C1,-,R1206433,M1157864,-,-,"Piperazine, 1-(4-dromobenzhydryl)-4-methyl-:",Koerner,charochkina,A5793,-,-,-,7.97,Log unit,25,?C,N1(CCN(C(c2ccc(Br)cc2)c2ccccc2)CC1)C,2
CN1CCN(CC1)C(C1=CC=CC=C1)C1=CC(Cl)=CC=C1,-,R1206434,M1157865,-,-,"Piperazine, 1-(3-chlorobenzhydry)-4-methylo-",Koerner,charochkina,A5793,-,-,-,8.1,Log unit,25,?C,N1(CCN(C(c2cc(Cl)ccc2)c2ccccc2)CC1)C,2
CN1CCN(CC1)C(C1=CC=CC=C1)C1=CC=C(Cl)C=C1,-,R1206435,M17688,-,-,"Piperazine, 1-(4-chlorobenzhyldryl)-4-methyl-",Koerner,charochkina,A5793,-,-,-,7.98,Log unit,25,?C,N1(CCN(C(c2ccc(Cl)cc2)c2ccccc2)CC1)C,2
CN1CCN(CC1)C(C1=CC=CC=C1)C1=CC=CC=C1,-,R1206438,M17687,-,-,"Piperazine, 1-diphenylmethyl-4-methyl-",Koerner,charochkina,A5793,-,-,-,8.16,Log unit,25,?C,N1(C(c2ccccc2)c2ccccc2)CCN(C)CC1,2