"SMILES","CASRN","RECORDID","MOLECULEID","EXTERNALID","N","NAME","NAME","INTRODUCER","MODIFIER","ARTICLEID","PUBMEDID","PAGE","TABLE","pKa (smiles as ob. cond.) {measured}","UNIT {pKa (smiles as ob. cond.)}","pKa (smiles as ob. cond.) {measured, converted}","UNIT {pKa (smiles as ob. cond.)}","Ionizable centre (smiles)","IC group detected","AtomNR of IC","groupsAndICs","IC smiles given","IC group given","Temperature","UNIT {Temperature}","MultiGroupDetection","COMMENTS","INCHI_KEY"
"CC1CCCCN1CCCOC1=CC=CC=C1","-","R945705","M42282","-","-","1-(3-benzoxypropyl)-2-methylpiperidine","-","Koerner","charochkina","A5793","-","-","-","9.58","Log unit","9.58","Log unit","N1(CCCOc2ccccc2)CCCCC1C","8","","{nr2=[8]}","c(ccc1OCCCN(CCC2)C(C2)C)cc1","nr2","25.0","?C","","-","OTMLATMCCJDRRG-UHFFFAOYSA"
"CC1CC(CC(C)(C)N1)OC1=CC=CC=C1","-","R945706","M1107214","-","-","4-benzoxy-2,2,6-trimethylpiperidine","-","Koerner","charochkina","A5793","-","-","-","9.54","Log unit","9.54","Log unit","N1C(CC(Oc2ccccc2)CC1(C)C)C","8","","{nr2=[8]}","c(ccc1OC(CC(N2)C)CC2(C)C)cc1","nr2","25.0","?C","","-","TZTAHVGGFJZZOP-UHFFFAOYSA"
"O=C(CC1=CC=CC=C1)C(CN1CCCCC1)C1=CC=CC=C1","-","R945707","M1107215","-","-","N-(2-benzylcarbonyl-2-phenyl)ethylpiperidine","-","Koerner","charochkina","A5793","-","-","-","9.03","Log unit","9.03","Log unit","N1(CC(C(=O)Cc2ccccc2)c2ccccc2)CCCCC1","15","","{nr2=[15]}","c(ccc1CC(=O)C(c(ccc2)cc2)CN(CCC3)CC3)cc1","nr2","25.0","?C","","-","IXUYKIFODFFUGK-UHFFFAOYSA"
"CCCCN1CCCCC1","-","R945708","M29816","-","-","1-n-butylpiperidine","-","Koerner","charochkina","A5793","-","-","-","10.45","Log unit","10.45","Log unit","N1(CCCCC1)CCCC","4","","{nr2=[4]}","C(CCC1)N(C1)CCCC","nr2","25.0","?C","","-","AXWLKJWVMMAXBD-UHFFFAOYSA"
"CCCCN1CCCCC1C","-","R945709","M1107216","-","-","1-n-butyl-2-methylpiperidine","-","Koerner","charochkina","A5793","-","-","-","10.7","Log unit","10.7","Log unit","N1(CCCCC1C)CCCC","4","","{nr2=[4]}","C(CCC1)N(C1C)CCCC","nr2","25.0","?C","","-","PHLTYBSRSKCOOU-UHFFFAOYSA"
"N#CC(CCN1CCCCC1)(C1=CC=CC=C1)C1=CC=CC=C1","-","R945710","M1107217","-","-","1-(3-cyano-3,3-diphenyl)propylpiperidine","-","Koerner","charochkina","A5793","-","-","-","8.02","Log unit","8.02","Log unit","N1(CCC(c2ccccc2)(c2ccccc2)C#N)CCCCC1","15","","{nr2=[15]}","c(ccc1C(c(ccc2)cc2)(C#N)CCN(CCC3)CC3)cc1","nr2","25.0","?C","","-","VXPUAJALRVCLNP-UHFFFAOYSA"
"N#CCN1CCCCC1","-","R945711","M72209","-","-","1-Cyanomethylpiperidine","-","Koerner","charochkina","A5793","-","-","-","4.525","Log unit","4.525","Log unit","N1(CCCCC1)CC#N","4","","{nr2=[4]}","C(CCC1)N(C1)CC#N","nr2","25.0","?C","","-","CLVBVRODHJFTGF-UHFFFAOYSA"
"CC(CC(C#N)(C1=CC=CC=C1)C1=CC=CC=C1)N1CCCCC1","-","R945712","M75435","-","-","1-(3-cyano-1-methyl-3,3-diphenyl)propylpiperidine","-","Koerner","charochkina","A5793","-","-","-","8.93","Log unit","8.93","Log unit","N1(C(CC(c2ccccc2)(c2ccccc2)C#N)C)CCCCC1","15","","{nr2=[15]}","c(ccc1C(c(ccc2)cc2)(C#N)CC(N(CCC3)CC3)C)cc1","nr2","25.0","?C","","-","ILJNEWQDWFOAGR-UHFFFAOYSA"
"CC(CN1CCCCC1)C(C#N)(C1=CC=CC=C1)C1=CC=CC=C1","-","R945713","M117126","-","-","1-(3-cyano-2-methyl-3,3-diphenyl)propylpiperidine","-","Koerner","charochkina","A5793","-","-","-","8.16","Log unit","8.16","Log unit","N1(CC(C(c2ccccc2)(c2ccccc2)C#N)C)CCCCC1","15","","{nr2=[15]}","c(ccc1C(c(ccc2)cc2)(C#N)C(CN(CCC3)CC3)C)cc1","nr2","25.0","?C","","-","HGKFSYSKZCQWHP-UHFFFAOYSA"
"CC1CCCCN1C","-","R945714","M67464","-","-","1,2-DIMETHYLPIPERIDINE","-","Koerner","charochkina","A5793","-","-","-","10.22","Log unit","10.22","Log unit","N1(CCCCC1C)C","4","","{nr2=[4]}","C(CCC1)N(C)C1C","nr2","25.0","?C","","-","MWUISCCBFHLWLY-UHFFFAOYSA"
"CC1CCCN(C)C1","-","R945715","M1107218","-","-","1,3-dimethylpiperidine","-","Koerner","charochkina","A5793","-","-","-","10.02","Log unit","10.02","Log unit","N1(CCCC(C)C1)C","5","","{nr2=[5]}","C(CCC1C)N(C1)C","nr2","25.0","?C","","-","ONQLCPDIXPYJSS-UHFFFAOYSA"
"CC1CCN(C)CC1","-","R945716","M1107219","-","-","1,4-dimethylpiperidine","-","Koerner","charochkina","A5793","-","-","-","10.05","Log unit","10.05","Log unit","N1(CCC(CC1)C)C","5","","{nr2=[5]}","C(CC(C1)C)N(C1)C","nr2","25.0","?C","","-","TVSMLBGFGKLKOO-UHFFFAOYSA"
"CC1CCNC(C)C1","-","R945717","M740927","-","-","2,4-Dimethylpiperidine","-","Koerner","charochkina","A5793","-","-","-","10.7","Log unit","10.7","Log unit","N1CCC(C)CC1C","0","","{nr2=[0]}","N(CCC1C)C(C1)C","nr2","25.0","?C","","-","QOZOFODNIBQPGN-UHFFFAOYSA"
"CC1(C)CCCNC1","-","R945718","M24861","-","-","3,3-Dimethylpiperidine","-","Koerner","charochkina","A5793","-","-","-","10.38","Log unit","10.38","Log unit","N1CCCC(C1)(C)C","0","","{nr2=[0]}","N(CCC1)CC1(C)C","nr2","25.0","?C","","-","CDODDZJCEADUQQ-UHFFFAOYSA"
"CN(C)CCN1CCCCC1","-","R945719","M1107220","-","-","1-(2-dimethylamino)ethylpiperidine","-","Koerner","charochkina","A5793","-","-","-","9.403","Log unit","9.403","Log unit","N1(CCCCC1)CCN(C)C","4","","{nr2=[4, 8]}","C(CCC1)N(C1)CCN(C)C","nr2","25.0","?C","true","-","OONVMEUUWGEINX-UHFFFAOYSA"
"O=C(CCN1CCCCC1)C(C1=CC=CC=C1)C1=CC=CC=C1","-","R945720","M1107221","-","-","1-(2-diphenylmethylcarbonyl)ethylpiperidine","-","Koerner","charochkina","A5793","-","-","-","9.45","Log unit","9.45","Log unit","N1(CCC(=O)C(c2ccccc2)c2ccccc2)CCCCC1","15","","{nr2=[15]}","c(ccc1C(c(ccc2)cc2)C(=O)CCN(CCC3)CC3)cc1","nr2","25.0","?C","","-","FCFBSTQJUHPEID-UHFFFAOYSA"
"C(CN1CCCCC1)C(C1=CC=CC=C1)C1=CC=CC=C1","-","R945721","M5344","-","-","1-(3,3-diphenyl)propylpiperidine","-","Koerner","charochkina","A5793","-","-","-","8.91","Log unit","8.91","Log unit","N1(CCC(c2ccccc2)c2ccccc2)CCCCC1","13","","{nr2=[13]}","c(ccc1C(c(ccc2)cc2)CCN(CCC3)CC3)cc1","nr2","25.0","?C","","-","JXJPYHDHJZJWRI-UHFFFAOYSA"
"CCN1CCCCC1","-","R945722","M23558","-","-","1-Ethylpiperidine","-","Koerner","charochkina","A5793","-","-","-","10.45","Log unit","10.45","Log unit","N1(CC)CCCCC1","2","","{nr2=[2]}","CCN1CCCCC1","nr2","25.0","?C","","-","HTLZVHNRZJPSMI-UHFFFAOYSA"
"CCC1CCNCC1","-","R945723","M27990","-","-","4-Ethylpiperidine","-","Koerner","charochkina","A5793","-","-","-","10.89","Log unit","10.89","Log unit","N1CCC(CC)CC1","0","","{nr2=[0]}","N(CCC1CC)CC1","nr2","25.0","?C","","-","KWHPWBXOLZTZMJ-UHFFFAOYSA"
"CCN1CCCC(C)C1","-","R945724","M70790","-","-","1-Ethyl-3-methylpiperidine","-","Koerner","charochkina","A5793","-","-","-","10.33","Log unit","10.33","Log unit","N1(CCCC(C)C1)CC","5","","{nr2=[5]}","C(CCC1C)N(C1)CC","nr2","25.0","?C","","-","YSPBEFPTFBRJBH-UHFFFAOYSA"
"CCN1CCC(C)CC1","-","R945725","M1107222","-","-","1-ethyl-4-methylpiperidine","-","Koerner","charochkina","A5793","-","-","-","10.28","Log unit","10.28","Log unit","N1(CCC(CC1)C)CC","5","","{nr2=[5]}","C(CC(C1)C)N(C1)CC","nr2","25.0","?C","","-","JUHZIHYGDUXTFJ-UHFFFAOYSA"
"CCC(=O)C(CCN1CCCCC1)(C1=CC=CC=C1)C1=CC=CC=C1","-","R945726","M21771","-","-","1-(3-ethylcarbonyl-3,3-diphenyl)propylpiperidine","-","Koerner","charochkina","A5793","-","-","-","8.81","Log unit","8.81","Log unit","N1(CCC(c2ccccc2)(c2ccccc2)C(=O)CC)CCCCC1","17","","{nr2=[17]}","c(ccc1C(c(ccc2)cc2)(C(=O)CC)CCN(CCC3)CC3)cc1","nr2","25.0","?C","","-","WCDSHELZWCOTMI-UHFFFAOYSA"
"CCC(=O)C(C(C)CN1CCCCC1)(C1=CC=CC=C1)C1=CC=CC=C1","-","R945727","M64847","-","-","1-(3-ethylcarbonyl-2-methyl-3,3-diphenyl)propylpiperidine","-","Koerner","charochkina","A5793","-","-","-","9.4","Log unit","9.4","Log unit","N1(CC(C(c2ccccc2)(c2ccccc2)C(=O)CC)C)CCCCC1","17","","{nr2=[17]}","c(ccc1C(c(ccc2)cc2)(C(=O)CC)C(CN(CCC3)CC3)C)cc1","nr2","25.0","?C","","-","KNIKXRHJCUWYNL-UHFFFAOYSA"
"CC(CC1=CC=CC=C1)N(C)C","-","R945526","M28962","-","-","(2-dimethylamino)propylbenzene","-","Koerner","charochkina","A5793","-","-","-","9.4","Log unit","9.4","Log unit","N(C(Cc1ccccc1)C)(C)C","6","","{nr2=[6]}","c(ccc1CC(N(C)C)C)cc1","nr2","25.0","?C","","-","OBDSVYOSYSKVMX-UHFFFAOYSA"
"CC(C)NCC(O)C1=CC(F)=CC=C1","-","R945527","M1107139","-","-","1-fluoro-3-(1-hydroxy-2-isopropylamino)ethylbenzene","-","Koerner","charochkina","A5793","-","-","-","9.4","Log unit","9.4","Log unit","N(CC(c1cc(F)ccc1)O)C(C)C","10","","{nr2=[10], oh=[8]}","F-c(ccc1)cc1C(O)CNC(C)C","nr2","25.0","?C","","-","IDAZVHMZFWXZDW-UHFFFAOYSA"
"CNCC(O)C1=CC(O)=CC=C1","-","R945528","M10528","-","-","1-hydroxy-3-(1-hydroxy-2-methylamino)ethylbenzene","-","Koerner","charochkina","A5793","-","-","-","8.875","Log unit","8.875","Log unit","N(CC(c1cc(O)ccc1)O)C","10","","{nr2=[10], oh=[0, 8]}","O-c(ccc1)cc1C(O)CNC","nr2","25.0","?C","","-","SONNWYBIRXJNDC-UHFFFAOYSA"
"CNCC(O)C1=CC=C(O)C=C1","-","R945529","M15374","-","-","1-hydroxy-4-(1-hydroxy-2-methylamino)ethylbenzene","-","Koerner","charochkina","A5793","-","-","-","9.7","Log unit","9.7","Log unit","N(CC(c1ccc(O)cc1)O)C","8","","{nr2=[8], oh=[0, 6]}","O-c(ccc1C(O)CNC)cc1","nr2","25.0","?C","","-","YRCWQPVGYLYSOX-UHFFFAOYSA"
"CC(C)NCC(O)C1=CC=C(O)C=C1","-","R945530","M58836","-","-","1-hydroxy-4-(1-hydroxy-2-isopropylamino)ethylbenzene","-","Koerner","charochkina","A5793","-","-","-","9.57","Log unit","9.57","Log unit","N(CC(c1ccc(O)cc1)O)C(C)C","8","","{nr2=[8], oh=[0, 6]}","O-c(ccc1C(O)CNC(C)C)cc1","nr2","25.0","?C","","-","MPCPSVWSWKWJLO-UHFFFAOYSA"
"CC(C)NCC(=O)C1=CC=C(O)C=C1","-","R945531","M1107140","-","-","1-hydroxy-4-(isopropylamino)acetylbenzene","-","Koerner","charochkina","A5793","-","-","-","7.585","Log unit","7.585","Log unit","Oc1ccc(C(=O)CNC(C)C)cc1","0","","{nr2=[8], oh=[0]}","O-c(ccc1C(=O)CNC(C)C)cc1","oh","25.0","?C","","-","YZMBSDNWDWFLSG-UHFFFAOYSA"
"CC(C)NCC(=O)C1=CC=C(O)C=C1","-","R945532","M1107140","-","-","1-hydroxy-4-(isopropylamino)acetylbenzene","-","Koerner","charochkina","A5793","-","-","-","9.58","Log unit","9.58","Log unit","N(CC(=O)c1ccc(O)cc1)C(C)C","8","","{nr2=[8], oh=[0]}","O-c(ccc1C(=O)CNC(C)C)cc1","nr2","25.0","?C","","-","YZMBSDNWDWFLSG-UHFFFAOYSA"
"CC(C)[NH2+]CCC1=CC=C(O)C=C1","-","R945533","M1107141","-","-","1-hydroxy-4-(2-isopropylamino)ethylbenzene","-","Koerner","charochkina","A5793","-","-","-","9.594999","Log unit","9.594999","Log unit","Oc1ccc(CC[NH2+]C(C)C)cc1","0","","{oh=[0]}","O-c(ccc1CC[N+1]C(C)C)cc1","oh","25.0","?C","","-","LUVHMKBYLSDWQF-UHFFFAOYSA"
"CC(C)NCCC1=CC=C(O)C=C1","-","R945534","M1107141","-","-","1-hydroxy-4-(2-isopropylamino)ethylbenzene","-","Koerner","charochkina","A5793","-","-","-","10.75","Log unit","10.75","Log unit","N(CCc1ccc(O)cc1)C(C)C","7","","{nr2=[7], oh=[0]}","O-c(ccc1CCNC(C)C)cc1","nr2","25.0","?C","","-","LUVHMKBYLSDWQF-UHFFFAOYSA"
"CNCC(O)C1=CC=CC=C1","-","R945535","M20875","-","-","(1-hydroxy-2-methylamino)ethylbenzene","-","Koerner","charochkina","A5793","-","-","-","9.37","Log unit","9.37","Log unit","N(CC(c1ccccc1)O)C","7","","{nr2=[7], oh=[5]}","c(ccc1C(O)CNC)cc1","nr2","25.0","?C","","-","ZCTYHONEGJTYQV-UHFFFAOYSA"
"C[NH2+]CCC1=CC=C(O)C=C1","-","R945536","M20241","-","-","1-hydroxy-4-(2-methylamino)ethyl","-","Koerner","charochkina","A5793","-","-","-","9.36","Log unit","9.36","Log unit","Oc1ccc(CC[NH2+]C)cc1","0","","{oh=[0]}","O-c(ccc1CC[N+1]C)cc1","oh","25.0","?C","","-","AXVZFRBSCNEKPQ-UHFFFAOYSA"
"CNC(C)C(O)C1=CC=CC=C1","-","R945537","M5924","-","-","(1-hydroxy-2-methylamino)propylbenzene","-","Koerner","charochkina","A5793","-","-","-","9.3","Log unit","9.3","Log unit","N(C(C(c1ccccc1)O)C)C","7","","{nr2=[7], oh=[5]}","c(ccc1C(O)C(NC)C)cc1","nr2","25.0","?C","","-","KWGRBVOPPLSCSI-UHFFFAOYSA"
"CC(C)NCCC1=CC=CC=C1","-","R945538","M1107142","-","-","(2-isopropylamino)ethylbenzene","-","Koerner","charochkina","A5793","-","-","-","10.02","Log unit","10.02","Log unit","N(CCc1ccccc1)C(C)C","6","","{nr2=[6]}","c(ccc1CCNC(C)C)cc1","nr2","25.0","?C","","-","HNPAEWJKFXEUDW-UHFFFAOYSA"
"CNCCCCC1=CC=CC=C1","-","R945539","M189169","-","-","(4-methylamino)butylbenzene","-","Koerner","charochkina","A5793","-","-","-","10.8","Log unit","10.8","Log unit","N(CCCCc1ccccc1)C","8","","{nr2=[8]}","c(ccc1CCCCNC)cc1","nr2","25.0","?C","","-","TXYKOQZEJZWJEN-UHFFFAOYSA"
"CNCCC1=CC=CC=C1","-","R945540","M10215","-","-","(2-methylamino)ethylbenzene","-","Koerner","charochkina","A5793","-","-","-","10.195","Log unit","10.195","Log unit","N(CCc1ccccc1)C","6","","{nr2=[6]}","c(ccc1CCNC)cc1","nr2","25.0","?C","","-","SASNBVQSOZSTPD-UHFFFAOYSA"
"CNC(C)CC1=CC=CC=C1","-","R945541","M7127","-","-","(2-methylaimno)propylbenzene","-","Koerner","charochkina","A5793","-","-","-","9.87","Log unit","9.87","Log unit","N(C(Cc1ccccc1)C)C","6","","{nr2=[6]}","c(ccc1CC(NC)C)cc1","nr2","25.0","?C","","-","MYWUZJCMWCOHBA-UHFFFAOYSA"
"CNCCCC1=CC=CC=C1","-","R945542","M37379","-","-","(3-methylamino)propylbenzene","-","Koerner","charochkina","A5793","-","-","-","10.64","Log unit","10.64","Log unit","N(CCCc1ccccc1)C","7","","{nr2=[7]}","c(ccc1CCCNC)cc1","nr2","25.0","?C","","-","MLHBZVFOTDJTPK-UHFFFAOYSA"
"CNCC(C)C1=CC=CC=C1","-","R945543","M18084","-","-","(1-methyl-2-methylamino)ethylbenzene","-","Koerner","charochkina","A5793","-","-","-","9.88","Log unit","9.88","Log unit","N(CC(c1ccccc1)C)C","7","","{nr2=[7]}","c(ccc1C(C)CNC)cc1","nr2","25.0","?C","","-","AUFSOOYCQYDGES-UHFFFAOYSA"
"NCC1=CC=CC=C1","-","R945544","M12270","-","-","benzylamine","-","Koerner","charochkina","A5793","-","-","-","9.360001","Log unit","9.360001","Log unit","NCc1ccccc1","5","","{nr2=[5]}","c(ccc1CN)cc1","nr2","25.0","?C","","-","WGQKYBSKWIADBV-UHFFFAOYSA"
"CC(O)CN(CC(C)O)CC1=CC=CC=C1","-","R945545","M1066584","-","-","N,N-bis(2-hydroxypropyl)benzylamine","-","Koerner","charochkina","A5793","-","-","-","7.5","Log unit","7.5","Log unit","N(Cc1ccccc1)(CC(O)C)CC(O)C","5","","{nr2=[5], oh=[8, 12]}","c(ccc1CN(CC(O)C)CC(O)C)cc1","nr2","25.0","?C","","-","NPMGKAJEKWZCIO-UHFFFAOYSA"
"O=N(=O)C1=CC=C(CNC(CC2=CC=CC=C2)CC2=CC=CC=C2)C=C1","-","R945546","M1107143","-","-","N-(dibenzylmethyl)-p-nitrobenzylamine","-","Koerner","charochkina","A5793","-","-","-","7.7","Log unit","7.7","Log unit","N(C(Cc1ccccc1)Cc1ccccc1)Cc1ccc(N(=O)=O)cc1","6","","{nr2=[6, 12]}","c(ccc1CC(NCc(ccc2N(=O)=O)cc2)Cc(ccc3)cc3)cc1","nr2","25.0","?C","true","-","GWQNTJLDZUWMSR-UHFFFAOYSA"
"NCC1=CC(Br)=CC=C1","-","R945547","M235410","-","-","3-bromobenzylamine","-","Koerner","charochkina","A5793","-","-","-","8.98","Log unit","8.98","Log unit","NCc1cc(Br)ccc1","8","","{nr2=[8]}","Br-c(ccc1)cc1CN","nr2","25.0","?C","","-","SUYJXERPRICYRX-UHFFFAOYSA"
"NCC1=CC=C(Br)C=C1","-","R945548","M28864","-","-","4-Bromobenzylamine","-","Koerner","charochkina","A5793","-","-","-","9.13","Log unit","9.13","Log unit","NCc1ccc(Br)cc1","6","","{nr2=[6]}","Br-c(ccc1CN)cc1","nr2","25.0","?C","","-","XRNVSPDQTPVECU-UHFFFAOYSA"
"NCC1=CC(Cl)=CC=C1","-","R945549","M73850","-","-","3-Chlorobenzylamine","-","Koerner","charochkina","A5793","-","-","-","9.0","Log unit","9.0","Log unit","NCc1cc(Cl)ccc1","8","","{nr2=[8]}","Cl-c(ccc1)cc1CN","nr2","25.0","?C","","-","BJFPYGGTDAYECS-UHFFFAOYSA"
"NCC1=CC=C(Cl)C=C1","-","R945550","M13647","-","-","4-Chlorobenzylamine","-","Koerner","charochkina","A5793","-","-","-","9.190001","Log unit","9.190001","Log unit","NCc1ccc(Cl)cc1","6","","{nr2=[6]}","Cl-c(ccc1CN)cc1","nr2","25.0","?C","","-","YMVFJGSXZNNUDW-UHFFFAOYSA"
"NC(C#N)C1=CC=CC=C1","-","R945551","M40312","-","-","alpha-cyanobenzylamine","-","Koerner","charochkina","A5793","-","-","-","4.4","Log unit","4.4","Log unit","NC(c1ccccc1)C#N","4","","{nr2=[4]}","c1(C(C#N)N)ccccc1","nr2","25.0","?C","","-","JTIHSSVKTWPPHI-UHFFFAOYSA"
"NCC1=CC=C(C=C1)C#N","-","R945552","M112552","-","-","4-cyano-benzylamine","-","Koerner","charochkina","A5793","-","-","-","8.52","Log unit","8.52","Log unit","NCc1ccc(cc1)C#N","5","","{nr2=[5]}","c(cc(c1)CN)c(c1)C#N","nr2","25.0","?C","","-","LFIWXXXFJFOECP-UHFFFAOYSA"
"NC(CC#N)C1=CC=CC=C1","-","R945553","M1107144","-","-","alpha-cyanomethylbenzylamine","-","Koerner","charochkina","A5793","-","-","-","6.7","Log unit","6.7","Log unit","NC(CC#N)c1ccccc1","0","","{nr2=[0]}","NC(CC#N)c1ccccc1","nr2","25.0","?C","","-","YHBWEFKGUHZLOA-UHFFFAOYSA"
"CCN(CC)CC1=CC=CC=C1","-","R945554","M67717","-","-","N,N-DIETHYLBENZYLAMINE","-","Koerner","charochkina","A5793","-","-","-","9.44","Log unit","9.44","Log unit","N(Cc1ccccc1)(CC)CC","5","","{nr2=[5]}","c(ccc1CN(CC)CC)cc1","nr2","25.0","?C","","-","ZWRDBWDXRLPESY-UHFFFAOYSA"
"COC1=C(OC)C(CN)=CC=C1","-","R945555","M74173","-","-","2,3-dimethoxy-benzylamine","-","Koerner","charochkina","A5793","-","-","-","9.41","Log unit","9.41","Log unit","NCc1cccc(OC)c1OC","11","","{nr2=[11]}","c(cc(OC)c1OC)cc1CN","nr2","25.0","?C","","-","LVMPWFJVYMXSNY-UHFFFAOYSA"
"COC1=C(OC)C=C(CN)C=C1","-","R945556","M30613","-","-","3,4-dimethoxy-benzylamine","-","Koerner","charochkina","A5793","-","-","-","9.39","Log unit","9.39","Log unit","NCc1ccc(OC)c(OC)c1","11","","{nr2=[11]}","c(cc(OC)c1OC)c(c1)CN","nr2","25.0","?C","","-","DIVNUTGTTIRPQA-UHFFFAOYSA"
"CN(C)CC1=CC=CC=C1","-","R945557","M13295","-","-","N,N-DIMETHYLBENZYLAMINE","-","Koerner","charochkina","A5793","-","-","-","8.969999","Log unit","8.969999","Log unit","N(Cc1ccccc1)(C)C","5","","{nr2=[5]}","c(ccc1CN(C)C)cc1","nr2","25.0","?C","","-","XXBDWLFCJWSEKW-UHFFFAOYSA"
"CCNCC1=CC=CC=C1","-","R945558","M33276","-","-","N-Ethylbenzylamine","-","Koerner","charochkina","A5793","-","-","-","9.64","Log unit","9.64","Log unit","N(Cc1ccccc1)CC","5","","{nr2=[5]}","c(ccc1CNCC)cc1","nr2","25.0","?C","","-","HVAAHUDGWQAAOJ-UHFFFAOYSA"
"COC1=C(O)C(CN)=CC=C1","-","R945559","M1107090","-","-","2-hydroxy-3-methoxy-benzylamine","-","Koerner","charochkina","A5793","-","-","-","11.06","Log unit","11.06","Log unit","Oc1c(cccc1CN)OC","6","","{nr2=[10], oh=[6]}","c(cc(OC)c1O)cc1CN","oh","25.0","?C","","-","CLJHZQFAKIIMBA-UHFFFAOYSA"
"COC1=CC(CN)=CC=C1O","-","R945561","M12553","-","-","4-hydroxy-3-methoxy-benzylamine","-","Koerner","charochkina","A5793","-","-","-","10.5","Log unit","10.5","Log unit","Oc1ccc(CN)cc1OC","0","","{nr2=[6], oh=[0]}","O-c(ccc1CN)c(c1)OC","oh","25.0","?C","","-","WRPWWVNUCXQDQV-UHFFFAOYSA"
"NCC1=CC(F)=CC=C1","-","R945562","M65262","-","-","3-Fluorobenzylamine","-","Koerner","charochkina","A5793","-","-","-","9.04","Log unit","9.04","Log unit","NCc1cc(F)ccc1","8","","{nr2=[8]}","F-c(ccc1)cc1CN","nr2","25.0","?C","","-","QVSVMNXRLWSNGS-UHFFFAOYSA"
"NCC1=CC=C(F)C=C1","-","R945563","M65814","-","-","4-Fluorobenzylamine","-","Koerner","charochkina","A5793","-","-","-","9.3","Log unit","9.3","Log unit","NCc1ccc(F)cc1","6","","{nr2=[6]}","F-c(ccc1CN)cc1","nr2","25.0","?C","","-","IIFVWLUQBAIPMJ-UHFFFAOYSA"
"COC1=CC=CC=C1CN","-","R945564","M31494","-","-","2-Methoxybenzylamine","-","Koerner","charochkina","A5793","-","-","-","9.7","Log unit","9.7","Log unit","NCc1ccccc1OC","5","","{nr2=[5]}","c(ccc1CN)cc1OC","nr2","25.0","?C","","-","PXJACNDVRNAFHD-UHFFFAOYSA"
"COC1=CC(CN)=CC=C1","-","R945565","M29895","-","-","3-methoxy-benzylamine","-","Koerner","charochkina","A5793","-","-","-","9.15","Log unit","9.15","Log unit","NCc1cccc(c1)OC","9","","{nr2=[9]}","c(cc(c1)OC)cc1CN","nr2","25.0","?C","","-","GRRIMVWABNHKBX-UHFFFAOYSA"
"COC1=CC=C(CN)C=C1","-","R945566","M26778","-","-","4-Methoxy-benzylamine","-","Koerner","charochkina","A5793","-","-","-","9.51","Log unit","9.51","Log unit","NCc1ccc(cc1)OC","5","","{nr2=[5]}","c(cc(c1)CN)c(c1)OC","nr2","25.0","?C","","-","IDPURXSQCKYKIJ-UHFFFAOYSA"
"CNCC1=CC=CC=C1","-","R945567","M9764","-","-","N-Methylbenzylamine","-","Koerner","charochkina","A5793","-","-","-","9.55","Log unit","9.55","Log unit","N(Cc1ccccc1)C","5","","{nr2=[5]}","c(ccc1CNC)cc1","nr2","25.0","?C","","-","RIWRFSMVIUAEBX-UHFFFAOYSA"
"CC1=CC=CC=C1CN","-","R945568","M17931","-","-","2-Methylbenzylamine","-","Koerner","charochkina","A5793","-","-","-","9.19","Log unit","9.19","Log unit","NCc1ccccc1C","5","","{nr2=[5]}","c(ccc1CN)cc1C","nr2","25.0","?C","","-","CJAAPVQEZPAQNI-UHFFFAOYSA"
"CC1=CC(CN)=CC=C1","-","R945569","M18338","-","-","3-methyl-benzylamine","-","Koerner","charochkina","A5793","-","-","-","9.389999","Log unit","9.389999","Log unit","NCc1cccc(c1)C","8","","{nr2=[8]}","c(cc(c1)C)cc1CN","nr2","25.0","?C","","-","RGXUCUWVGKLACF-UHFFFAOYSA"