Smiles,CASRN,Record ID,Molecule ID,External ID,N,Name,Introducer,Modifer,Article ID,PUBMED ID,PAGE,TABLE,pKa,pKa Unit,Temperature,Temperature Unit,Ionizable center smiles,IC group
OC1=C(C=C(C=C1)N=NC1=CC=C(C=C1)N(=O)=O)C([O-])=O,-,R936810,M26552,-,-,2-hydroxy-5-(4-nitrophenylazo)benzoic acid,Koerner,charochkina,A5793,-,-,-,10.91,Log unit,25,?C,Oc1c(C(=O)[O-])cc(cc1)N=Nc1ccc(N(=O)=O)cc1,{oh=5}
CC1=C(C=CC=C1)N=NC1=CC(C(O)=O)=C(O)C=C1,-,R936811,M147513,-,-,2-hydroxy-5-(2-methylphenylazo)benzoic acid,Koerner,charochkina,A5793,-,-,-,2.12,Log unit,25,?C,OC(=O)c1c(O)ccc(N=Nc2c(C)cccc2)c1,"{co2h=2, aliphatic_carboxylic_acid=2}"
CC1=C(C=CC=C1)N=NC1=CC(C([O-])=O)=C(O)C=C1,-,R936812,M147513,-,-,2-hydroxy-5-(2-methylphenylazo)benzoic acid,Koerner,charochkina,A5793,-,-,-,11.61,Log unit,25,?C,Oc1c(C(=O)[O-])cc(cc1)N=Nc1c(C)cccc1,{oh=5}
CC1=CC=CC(=C1)N=NC1=CC(C([O-])=O)=C(O)C=C1,-,R936813,M1050515,-,-,2-hydroxy-5-(3-methylphenylazo)benzoic acid,Koerner,charochkina,A5793,-,-,-,11.61,Log unit,25,?C,Oc1c(C(=O)[O-])cc(cc1)N=Nc1cc(C)ccc1,{oh=5}
CC1=CC=C(C=C1)N=NC1=CC(C([O-])=O)=C(O)C=C1,-,R936814,M1050516,-,-,2-hydroxy-5-(4-methylphenylazo)benzoic acid,Koerner,charochkina,A5793,-,-,-,11.63,Log unit,25,?C,Oc1c(C(=O)[O-])cc(cc1)N=Nc1ccc(C)cc1,{oh=5}
CC1=CC(N=NC2=C(C=CC=C2)C([O-])=O)=C(O)C=C1,-,R936815,M1050517,-,-,2-(2-hydroxy-5-methylphenylazo)benzoic acid,Koerner,charochkina,A5793,-,-,-,11.4,Log unit,25,?C,Oc1c(N=Nc2c(C(=O)[O-])cccc2)cc(cc1)C,{oh=9}
COC1=CC=C(C=C1)N=NC1=CC(C([O-])=O)=C(O)C=C1,-,R936816,M1050518,-,-,2-hydroxy-5-(4-methyoxyphenylazo)benzoic acid,Koerner,charochkina,A5793,-,-,-,11.62,Log unit,25,?C,Oc1c(C(=O)[O-])cc(cc1)N=Nc1ccc(OC)cc1,{oh=5}
OC1=C(C=C(N=NC2=C(C=CC=C2)N(=O)=O)C2=C1C=CC=C2)C([O-])=O,-,R936817,M1050519,-,-,1-hydroxy-4-(2-nitrophenylazo)2-napthoic acid,Koerner,charochkina,A5793,-,-,-,11.69,Log unit,25,?C,Oc1c(C(=O)[O-])cc(N=Nc2c(N(=O)=O)cccc2)c2ccccc12,{oh=1}
OC1=C(C=C(N=NC2=CC(=CC=C2)N(=O)=O)C2=C1C=CC=C2)C([O-])=O,-,R936818,M1050520,-,-,1-hydroxy-4-(3-nitrophenylazo)2-napthoic acid,Koerner,charochkina,A5793,-,-,-,10.84,Log unit,25,?C,Oc1c(C(=O)[O-])cc(N=Nc2cc(N(=O)=O)ccc2)c2ccccc12,{oh=1}
OC1=C(C=C(N=NC2=CC=C(Cl)C=C2)C2=C1C=CC=C2)C([O-])=O,-,R936819,M1050521,-,-,1-hydroxy-4-(4-chlorophenylazo)2-napthoic acid,Koerner,charochkina,A5793,-,-,-,11.25,Log unit,25,?C,Oc1c(C(=O)[O-])cc(N=Nc2ccc(Cl)cc2)c2ccccc12,{oh=1}
OC1=C(C=C(N=NC2=CC=C(I)C=C2)C2=C1C=CC=C2)C([O-])=O,-,R936820,M1050522,-,-,1-hydroxy-4-(4-iodophenylazo)2-napthoic acid,Koerner,charochkina,A5793,-,-,-,11.28,Log unit,25,?C,Oc1c(C(=O)[O-])cc(N=Nc2ccc(I)cc2)c2ccccc12,{oh=1}
OC1=C(C=C(N=NC2=CC=CC=C2)C2=C1C=CC=C2)C([O-])=O,-,R936821,M1050523,-,-,1-hydroxy-4-phenylazo-2-napthoic acid,Koerner,charochkina,A5793,-,-,-,11.4,Log unit,25,?C,Oc1c(C(=O)[O-])cc(N=Nc2ccccc2)c2ccccc12,{oh=1}
CC1=C(C=CC=C1)N=NC1=CC(C([O-])=O)=C(O)C2=C1C=CC=C2,-,R936822,M1050524,-,-,1-hydroxy-5-(2-methylphenylazo)2-napthoic acid,Koerner,charochkina,A5793,-,-,-,11.55,Log unit,25,?C,Oc1c(C(=O)[O-])cc(N=Nc2c(C)cccc2)c2ccccc12,{oh=1}
CC1=CC=CC(=C1)N=NC1=CC(C([O-])=O)=C(O)C2=C1C=CC=C2,-,R936823,M1050525,-,-,1-hydroxy-5-(3-methylphenylazo)2-napthoic acid,Koerner,charochkina,A5793,-,-,-,11.43,Log unit,25,?C,Oc1c(C(=O)[O-])cc(N=Nc2cc(C)ccc2)c2ccccc12,{oh=1}
CC1=CC=C(C=C1)N=NC1=CC(C([O-])=O)=C(O)C2=C1C=CC=C2,-,R936824,M1050526,-,-,1-hydroxy-5-(4-methylphenylazo)2-napthoic acid,Koerner,charochkina,A5793,-,-,-,11.49,Log unit,25,?C,Oc1c(C(=O)[O-])cc(N=Nc2ccc(C)cc2)c2ccccc12,{oh=1}
COC1=CC=C(C=C1)N=NC1=CC(C([O-])=O)=C(O)C2=C1C=CC=C2,-,R936825,M1050527,-,-,1-hydroxy-5-(4-methoxyphenylazo)2-napthoic acid,Koerner,charochkina,A5793,-,-,-,11.61,Log unit,25,?C,Oc1c(C(=O)[O-])cc(N=Nc2ccc(OC)cc2)c2ccccc12,{oh=1}
OC1=CC(=O)OC1Br,-,R936826,M1050608,-,-,alpha-bromotetronic acid,Koerner,charochkina,A5793,-,-,-,2.23,Log unit,25,?C,OC1=CC(=O)OC1Br,{oh=6}
OC1=CC(=O)OC1I,-,R936827,M1050609,-,-,alpha-iodotetronic acid,Koerner,charochkina,A5793,-,-,-,2.31,Log unit,25,?C,OC1=CC(=O)OC1I,{oh=6}
OC1=CC(=O)OC1N(=O)=O,-,R936828,M1018848,-,-,alpha-nitrotetronic acid,Koerner,charochkina,A5793,-,-,-,1.68,Log unit,25,?C,OC1=CC(=O)OC1N(=O)=O,{oh=9}
CC(C)C1=CC=CC(=O)C(O)=C1,-,R936829,M20936,-,-,hinokiol,Koerner,charochkina,A5793,-,-,-,7.21,Log unit,25,?C,Oc1c(=O)cccc(c1)C(C)C,{oh=6}
CC(C)C1=CC=C(Br)C(=O)C(O)=C1Br,-,R936830,M29527,-,-,"3,7-dibromohinokiol",Koerner,charochkina,A5793,-,-,-,4.44,Log unit,25,?C,Oc1c(=O)c(Br)ccc(C(C)C)c1Br,{oh=11}
OC1=C(C(=O)C([O-])=C(C1=O)N(=O)=O)N(=O)=O,-,R936831,M1018849,-,-,"2,5-dihydroxy-3,6-dinitrobenzoquinone",Koerner,charochkina,A5793,-,-,-,-0.8,Log unit,25,?C,OC1=C(C(=O)C(=C(C1=O)N(=O)=O)[O-])N(=O)=O,{oh=3}
OC1=CC(=O)OC1Cl,-,R936832,M1034249,-,-,alpha-chlorotetronic acid,Koerner,charochkina,A5793,-,-,-,2.13,Log unit,25,?C,OC1=CC(=O)OC1Cl,{oh=6}
OC1=CC=C2C(=O)CCC2=C1,-,R936833,M1050528,-,-,5-hydroxy-indanon,Koerner,charochkina,A5793,-,-,-,7.53,Log unit,25,?C,Oc1cc2CCC(=O)c2cc1,{oh=7}
OC1=C2C(=O)CCC2=CC=C1,-,R936834,M1050529,-,-,7-hydroxy-indanon,Koerner,charochkina,A5793,-,-,-,8.43,Log unit,25,?C,Oc1cccc2CCC(=O)c12,{oh=9}
OC1=C2C(=O)CCC2=C(C=C1)N(=O)=O,-,R936835,M1050530,-,-,4-nitro-7-hydroxy-indanon,Koerner,charochkina,A5793,-,-,-,5.27,Log unit,25,?C,Oc1ccc(c2CCC(=O)c12)N(=O)=O,{oh=12}
OC1=C2C(=O)CCC2=CC=C1N(=O)=O,-,R936836,M1050531,-,-,6-nitro-7-hydroxy-indanon,Koerner,charochkina,A5793,-,-,-,5.31,Log unit,25,?C,Oc1c(ccc2CCC(=O)c12)N(=O)=O,{oh=12}
OC1=C2C(=O)CCC2=C(C=C1N(=O)=O)N(=O)=O,-,R936837,M1050532,-,-,"4,6-di-nitro-7-hydroxy-indanon",Koerner,charochkina,A5793,-,-,-,1.94,Log unit,25,?C,Oc1c(cc(c2CCC(=O)c12)N(=O)=O)N(=O)=O,{oh=15}
OC1=CC=C([O-])C2=C1C(=O)C1=CC=CC=C1C2=O,-,R936838,M17648,-,-,"1,4-Dihydroxyanthraquinone",Koerner,charochkina,A5793,-,-,-,10.9,Log unit,25,?C,Oc1ccc([O-])c2C(=O)c3ccccc3C(=O)c12,{oh=1}
OC1=CC=C2C(=O)C3=C(C=CC([O-])=C3)C(=O)C2=C1,-,R936839,M17739,-,-,"2,6-Dihydroxyanthraquinone",Koerner,charochkina,A5793,-,-,-,7.9,Log unit,25,?C,Oc1cc2C(=O)c3ccc(cc3C(=O)c2cc1)[O-],{oh=11}
OC1=C(Br)C=C(Br)C=C(Br)C1=O,-,R936840,M20207,-,-,"3,5,7-tribromo-2-hydroxy-2,4,6-cycloheptatrien-1-one",Koerner,charochkina,A5793,-,-,-,4.27,Log unit,25,?C,Oc1c(cc(Br)cc(Br)c1=O)Br,{oh=6}
OC1=CC(Br)=CC=CC1=O,-,R936841,M1034252,-,-,"4-bromo-2-hydroxy-2,4,6-Cycloheptatrien-1-one",Koerner,charochkina,A5793,-,-,-,5.7,Log unit,25,?C,Oc1c(=O)cccc(c1)Br,{oh=3}
OC1=CC=C(Br)C=CC1=O,-,R936842,M27924,-,-,"5-bromo-2-hydroxy-2,4,6-Cycloheptatrien-1-one",Koerner,charochkina,A5793,-,-,-,6.32,Log unit,25,?C,Oc1c(=O)ccc(cc1)Br,{oh=3}
CC1=CC(Br)=C(O)C(=O)C=C1,-,R936843,M1034253,-,-,"5-methyl-3-bromo-2-hydroxy-2,4,6-Cycloheptatrien-1-one",Koerner,charochkina,A5793,-,-,-,6.41,Log unit,25,?C,Oc1c(=O)ccc(cc1Br)C,{oh=3}
CC1=CC(=O)C(O)=C(Br)C=C1,-,R936844,M1034254,-,-,"6-methyl-3-bromo-2-hydroxy-2,4,6-Cycloheptatrien-1-one",Koerner,charochkina,A5793,-,-,-,6.3,Log unit,25,?C,Oc1c(=O)cc(ccc1Br)C,{oh=3}
CC1=CC(=O)C(O)=CC=C1Br,-,R936845,M1034255,-,-,"3-methyl-4-bromo-7-hydroxy-2,4,6-Cycloheptatrien-1-one",Koerner,charochkina,A5793,-,-,-,6.6,Log unit,25,?C,Oc1ccc(c(cc1=O)C)Br,{oh=10}
CC1=C(Br)C(=O)C(O)=C(Br)C=C1,-,R936846,M1034256,-,-,"3-methyl-2,6-dibromo-7-hydroxy-2,4,6-Cycloheptatrien-1-one",Koerner,charochkina,A5793,-,-,-,5.59,Log unit,25,?C,Oc1c(ccc(c(c1=O)Br)C)Br,{oh=11}
CC1=CC(Br)=C(O)C(=O)C(Br)=C1,-,R936847,M1034257,-,-,"4-methyl-2,6-dibromo-7-hydroxy-2,4,6-Cycloheptatrien-1-one",Koerner,charochkina,A5793,-,-,-,5.59,Log unit,25,?C,Oc1c(cc(cc(c1=O)Br)C)Br,{oh=11}
OC1=C(Br)C=C(Br)C=CC1=O,-,R936848,M29564,-,-,"3,5-dibromo-2-hydroxy-2,4,6-Cycloheptatrien-1-one",Koerner,charochkina,A5793,-,-,-,5.18,Log unit,25,?C,Oc1c(=O)ccc(cc1Br)Br,{oh=3}
OC1=C(Br)C=CC=C(Br)C1=O,-,R936849,M29565,-,-,"3,7-dibromo-2-hydroxy-2,4,6-Cycloheptatrien-1-one",Koerner,charochkina,A5793,-,-,-,4.68,Log unit,25,?C,Oc1c(=O)c(cccc1Br)Br,{oh=3}
OC1=C(Br)C=CC=C(Br)C1=O,-,R936850,M29565,-,-,"3,5,7-tribromo-2-hydroxy-2,4,6-cycloheptatrien-1-one",Koerner,charochkina,A5793,-,-,-,4.27,Log unit,25,?C,Oc1c(=O)c(cccc1Br)Br,{oh=3}
CC1=C(Br)C(=O)C(O)=C(Br)C=C1,-,R936851,M1034256,-,-,"6-methyl-3,5,7-tribromo-2-hydroxy-2,4,6-Cycloheptatrien-1-one",Koerner,charochkina,A5793,-,-,-,5.17,Log unit,25,?C,Oc1c(=O)c(c(ccc1Br)C)Br,{oh=3}
COC1=C(O)C(=O)C=CC=C1,-,R936852,M1034258,-,-,"3-methoxy-2-hydroxy-2,4,6-Cycloheptatrien-1-one",Koerner,charochkina,A5793,-,-,-,8,Log unit,25,?C,Oc1c(=O)ccccc1OC,{oh=3}
COC1=CC=C(O)C(=O)C=C1,-,R936853,M1034259,-,-,"5-methoxy-2-hydroxy-2,4,6-Cycloheptatrien-1-one",Koerner,charochkina,A5793,-,-,-,7.75,Log unit,25,?C,Oc1c(=O)ccc(cc1)OC,{oh=3}
CC1=C(O)C(=O)C=CC=C1,-,R936854,M1034260,-,-,"3-methyl-2-hydroxy-2,4,6-Cycloheptatrien-1-one",Koerner,charochkina,A5793,-,-,-,7.92,Log unit,25,?C,Oc1c(=O)ccccc1C,{oh=3}
CC1=CC=CC(=O)C(O)=C1,-,R936855,M21934,-,-,"4-methyl-2-hydroxy-2,4,6-Cycloheptatrien-1-one",Koerner,charochkina,A5793,-,-,-,7.26,Log unit,25,?C,Oc1c(=O)cccc(c1)C,{oh=3}
CC1=CC=C(O)C(=O)C=C1,-,R936856,M1006807,-,-,"5-methyl-2-hydroxy-2,4,6-Cycloheptatrien-1-one",Koerner,charochkina,A5793,-,-,-,7.32,Log unit,25,?C,Oc1c(=O)ccc(cc1)C,{oh=3}
COC1=C(C)C=C(O)C=C1,-,R936657,M1050460,-,-,4-methoxy-3-methyl-phenol,Koerner,charochkina,A5793,-,-,-,10.31,Log unit,25,?C,Oc1ccc(c(C)c1)OC,{oh=8}
COC1=CC(C=O)=CC=C1O,-,R936658,M7075,-,-,Vanillin,Koerner,charochkina,A5793,-,-,-,7.396,Log unit,25,?C,Oc1ccc(C=O)cc1OC,{oh=0}
COC1=C(O)C(C=O)=CC=C1,-,R936659,M5060,-,-,o-Vanillin,Koerner,charochkina,A5793,-,-,-,7.912,Log unit,25,?C,Oc1c(cccc1C=O)OC,{oh=6}
COC1=CC=C(C=O)C=C1O,-,R936660,M5307,-,-,Isovanillin,Koerner,charochkina,A5793,-,-,-,8.889,Log unit,25,?C,Oc1cc(ccc1OC)C=O,{oh=0}
CC(=O)C1=CC=CC(O)=C1,-,R936661,M6485,-,-,m-Hydroxyacetophenone,Koerner,charochkina,A5793,-,-,-,9.19,Log unit,25,?C,Oc1cccc(c1)C(=O)C,{oh=3}
COC1=CC(OC)=CC(O)=C1,-,R936662,M13153,-,-,"3,5-dimethoxy-phenol",Koerner,charochkina,A5793,-,-,-,9.34,Log unit,25,?C,Oc1cc(cc(c1)OC)OC,{oh=0}
CC1=CC(O)=C(Cl)C(C)=C1Cl,-,R936663,M19410,-,-,"2,4-dichloro-3,5-dimethyl-phenol",Koerner,charochkina,A5793,-,-,-,8.28,Log unit,25,?C,Oc1c(Cl)c(c(c(c1)C)Cl)C,{oh=3}
CC1=C(O)C(Cl)=C(C)C(Cl)=C1,-,R936664,M1050461,-,-,"2,4-dichloro-3,6-dimethyl-phenol",Koerner,charochkina,A5793,-,-,-,8.37,Log unit,25,?C,Oc1c(cc(Cl)c(c1Cl)C)C,{oh=5}
CC1=C(Cl)C=C(Cl)C(O)=C1C,-,R936665,M1050462,-,-,"2,4-dichloro-5,6-dimethyl-phenol",Koerner,charochkina,A5793,-,-,-,8.45,Log unit,25,?C,Oc1c(Cl)cc(Cl)c(C)c1C,{oh=8}
CC1=C(C)C(Cl)=C(O)C(Cl)=C1,-,R936666,M1050463,-,-,"2,6-dichloro-3,4-dimethyl-phenol",Koerner,charochkina,A5793,-,-,-,7.59,Log unit,25,?C,Oc1c(Cl)cc(c(C)c1Cl)C,{oh=8}
CC1=C(C)C=C(Cl)C(O)=C1,-,R936667,M8783,-,-,"2-chloro-4,5-dimethyl-phenol",Koerner,charochkina,A5793,-,-,-,8.89,Log unit,25,?C,Oc1c(Cl)cc(c(C)c1)C,{oh=8}
CC1=C(C)C(Cl)=CC=C1O,-,R936668,M69239,-,-,"4-chloro-2,3-dimethyl-phenol",Koerner,charochkina,A5793,-,-,-,9.91,Log unit,25,?C,Oc1ccc(Cl)c(c1C)C,{oh=5}
CC1=CC(O)=C(C)C=C1Cl,-,R936669,M68713,-,-,"4-chloro-2,5-dimethyl-phenol",Koerner,charochkina,A5793,-,-,-,9.89,Log unit,25,?C,Oc1c(cc(Cl)c(c1)C)C,{oh=5}
CC1=CC(O)=CC(C)=C1Cl,-,R936670,M8220,-,-,"4-chloro-3,5-dimethyl-phenol",Koerner,charochkina,A5793,-,-,-,9.702,Log unit,25,?C,Oc1cc(c(Cl)c(c1)C)C,{oh=5}
CC1=CC(Br)=CC(C)=C1O,-,R936671,M14202,-,-,"4-bromo-2,6-dimethyl-phenol",Koerner,charochkina,A5793,-,-,-,9.81,Log unit,25,?C,Oc1c(cc(Br)cc1C)C,{oh=5}
CC1=CC(F)=CC(C)=C1O,-,R936672,M1050464,-,-,"4-fluoro-2,6-dimethyl-phenol",Koerner,charochkina,A5793,-,-,-,10.46,Log unit,25,?C,Oc1c(cc(F)cc1C)C,{oh=5}
OC(C1=CC(Br)=CC=C1)C(F)(F)F,-,R936673,M1050465,-,-,"1-(3-bromophenyl)-2,2,2-trifluoro-ethanol",Koerner,charochkina,A5793,-,-,-,11.5,Log unit,25,?C,OC(c1cc(Br)ccc1)C(F)(F)F,{oh=8}
OC(C1=CC=CC(=C1)N(=O)=O)C(F)(F)F,-,R936674,M1050466,-,-,"2,2,2-trifluoro-1-(3-nitrophenyl)-ethanol",Koerner,charochkina,A5793,-,-,-,11.23,Log unit,25,?C,OC(c1cccc(c1)N(=O)=O)C(F)(F)F,{oh=10}
COC(=O)C1=CC(=C(O)C=C1)N(=O)=O,-,R936675,M65251,-,-,4-hydroxy-3-methoxybenzoate-methyl,Koerner,charochkina,A5793,-,-,-,5.4,Log unit,25,?C,Oc1c(cc(C(=O)OC)cc1)N(=O)=O,{oh=11}
CC(C)C1=CC=CC=C1O,-,R936676,M1577,-,-,2-isopropyl-phenol,Koerner,charochkina,A5793,-,-,-,10.325,Log unit,25,?C,Oc1ccccc1C(C)C,{oh=9}
CC(C)C1=CC=CC(O)=C1,-,R936677,M11780,-,-,3-isopropyl-phenol,Koerner,charochkina,A5793,-,-,-,10.16,Log unit,25,?C,Oc1cccc(c1)C(C)C,{oh=3}
CC(C)C1=CC=C(O)C=C1,-,R936678,M13731,-,-,4-Isopropyl-phenol,Koerner,charochkina,A5793,-,-,-,10.25,Log unit,25,?C,Oc1ccc(C(C)C)cc1,{oh=0}
CCCC1=CC=CC=C1O,-,R936679,M6063,-,-,2-propyl-phenol,Koerner,charochkina,A5793,-,-,-,10.525,Log unit,25,?C,Oc1ccccc1CCC,{oh=9}
CC1=CC(C)=C(C)C(O)=C1,-,R936680,M7904,-,-,"2,3,5-trimethyl-phenol",Koerner,charochkina,A5793,-,-,-,10.69,Log unit,25,?C,Oc1cc(cc(c1C)C)C,{oh=0}
CC1=CC(C)=C(C)C=C1O,-,R936681,M20900,-,-,"2,4,5-trimethyl-phenol",Koerner,charochkina,A5793,-,-,-,10.57,Log unit,25,?C,Oc1cc(c(C)cc1C)C,{oh=0}
COC1=CC(C)=C(O)C(C)=C1,-,R936682,M69326,-,-,"4-methoxy-2,6-dimethyl-phenol",Koerner,charochkina,A5793,-,-,-,10.84,Log unit,25,?C,Oc1c(cc(OC)cc1C)C,{oh=0}
CC1=CC(=C(O)C(=C1)N(=O)=O)N(=O)=O,-,R936683,M3977,-,-,"4-methyl-2,6-dinitro-phenol",Koerner,charochkina,A5793,-,-,-,4.231,Log unit,25,?C,Oc1c(cc(C)cc1N(=O)=O)N(=O)=O,{oh=0}
OC1=CC(C=O)=CC=C1,-,R936684,M4261,-,-,3-HYDROXY-BENZALDEHYDE,Koerner,charochkina,A5793,-,-,-,8.985,Log unit,25,?C,Oc1cccc(c1)C=O,{oh=3}
OC1=CC=C(C=O)C=C1,-,R936685,M9708,-,-,4-HYDROXY-BENZALDEHYDE,Koerner,charochkina,A5793,-,-,-,7.61,Log unit,25,?C,Oc1ccc(cc1)C=O,{oh=8}
CC1=CC(O)=C(C=C1)N(=O)=O,-,R936686,M7534,-,-,5-methyl-2-nitro-phenol,Koerner,charochkina,A5793,-,-,-,7.4,Log unit,25,?C,Oc1c(N(=O)=O)ccc(C)c1,{oh=1}
OC(C1=CC=CC=C1)C(F)(F)F,-,R936687,M66066,-,-,"2,2,2-trifluoro-1-phenyl-ethanol",Koerner,charochkina,A5793,-,-,-,11.9,Log unit,25,?C,OC(c1ccccc1)C(F)(F)F,{oh=5}
COC(=O)C1=CC(O)=C(C=C1)N(=O)=O,-,R936688,M1050467,-,-,3-hydroxy-4-nitrobenzoate-methyl,Koerner,charochkina,A5793,-,-,-,6.15,Log unit,25,?C,Oc1cc(C(=O)OC)ccc1N(=O)=O,{oh=7}
CC(=O)NC1=CC(O)=C(C=C1)N(=O)=O,-,R936689,M1050468,-,-,N-(3-hydroxy-4-nitrophenyl)acetamid,Koerner,charochkina,A5793,-,-,-,6.71,Log unit,25,?C,Oc1cc(NC(=O)C)ccc1N(=O)=O,{oh=7}
CC(=O)NC1=CC(=C(O)C=C1)N(=O)=O,-,R936690,M88657,-,-,N-(4-hydroxy-3-nitrophenyl)acetamid,Koerner,charochkina,A5793,-,-,-,6.78,Log unit,25,?C,Oc1c(cc(NC(=O)C)cc1)N(=O)=O,{oh=11}
CC(=O)NC1=CC(O)=CC=C1,-,R936691,M9231,-,-,N-(4-hydroxyphenyl)acetamid,Koerner,charochkina,A5793,-,-,-,9.6,Log unit,25,?C,Oc1cc(NC(=O)C)ccc1,{oh=7}
CN(C(C)=O)C1=C(O)C=CC=C1,-,R936692,M1050469,-,-,N-(2-hydroxyphenyl)-N-methylacetamid,Koerner,charochkina,A5793,-,-,-,8.9,Log unit,25,?C,Oc1c(N(C)C(=O)C)cccc1,{oh=7}
CN(C(C)=O)C1=C(S)C=CC=C1,-,R936693,M1050470,-,-,N-(2-mercaptoyphenyl)-N-methylacetamid,Koerner,charochkina,A5793,-,-,-,5.6,Log unit,25,?C,Sc1c(N(C)C(=O)C)cccc1,{sh=7}
CC1=CC(=CC(C)=C1O)N=O,-,R936694,M114001,-,-,"2,6-dimethyl-4-nitroso-phenol",Koerner,charochkina,A5793,-,-,-,7.56,Log unit,25,?C,Oc1c(C)cc(N=O)cc1C,{oh=1}
CC1=CC(O)=CC(C)=C1N=O,-,R936695,M1050471,-,-,"3,5-dimethyl-4-nitroso-phenol",Koerner,charochkina,A5793,-,-,-,8.04,Log unit,25,?C,Oc1cc(C)c(N=O)c(C)c1,{oh=1}
OC1=CC=CC=C1CC=C,-,R936696,M9170,-,-,2-allyl-phenol,Koerner,charochkina,A5793,-,-,-,10.29,Log unit,25,?C,Oc1ccccc1CC=C,{oh=9}
OC1=CC=C(CC=C)C=C1,-,R936697,M20969,-,-,4-allyl-phenol,Koerner,charochkina,A5793,-,-,-,10.23,Log unit,25,?C,Oc1ccc(CC=C)cc1,{oh=0}
CC=CC1=CC=C(O)C=C1,-,R936698,M698005,-,-,4-(1-propenyl)-phenol,Koerner,charochkina,A5793,-,-,-,9.809999,Log unit,25,?C,Oc1ccc(C=CC)cc1,{oh=0}
CCOC(=O)C1=C(O)C=CC=C1,-,R936699,M18981,-,-,2-hydroxybenzoate-ethyl,Koerner,charochkina,A5793,-,-,-,9.92,Log unit,25,?C,Oc1c(C(=O)OCC)cccc1,{oh=7}
CCOC(=O)C1=CC(O)=CC=C1,-,R936700,M7079,-,-,3-hydroxybenzoate-ethyl,Koerner,charochkina,A5793,-,-,-,9.1,Log unit,25,?C,Oc1cc(C(=O)OCC)ccc1,{oh=8}
CCOC(=O)C1=CC=C(O)C=C1,-,R936701,M7615,-,-,4-hydroxybenzoate-ethyl,Koerner,charochkina,A5793,-,-,-,8.5,Log unit,25,?C,Oc1ccc(C(=O)OCC)cc1,{oh=9}
CCOC(=O)C1=CC(O)=C([O-])C=C1,-,R936702,M73570,-,-,"3,4-dihydroxybenzoate-methyl",Koerner,charochkina,A5793,-,-,-,11.65,Log unit,25,?C,Oc1cc(C(=O)OCC)ccc1[O-],{oh=8}
COC(=O)C1=C(O)C(OC)=CC=C1,-,R936703,M77046,-,-,2-hydroxy-3-methoxybenzoate-methyl,Koerner,charochkina,A5793,-,-,-,10.3,Log unit,25,?C,Oc1c(C(=O)OC)cccc1OC,{oh=6}
COC(=O)C1=C(O)C=C(OC)C=C1,-,R936704,M75494,-,-,2-hydroxy-4-methoxybenzoate-methyl,Koerner,charochkina,A5793,-,-,-,9.85,Log unit,25,?C,Oc1c(C(=O)OC)ccc(c1)OC,{oh=6}
COC(=O)C1=CC(O)=C(OC)C=C1,-,R936705,M1050472,-,-,3-hydroxy-4-methoxybenzoate-methyl,Koerner,charochkina,A5793,-,-,-,9.21,Log unit,25,?C,Oc1cc(C(=O)OC)ccc1OC,{oh=7}
COC(=O)C1=CC(OC)=C(O)C=C1,-,R936706,M28845,-,-,4-hydroxy-3-methoxybenzoate-methyl,Koerner,charochkina,A5793,-,-,-,8.3,Log unit,25,?C,Oc1c(cc(C(=O)OC)cc1)OC,{oh=10}
COC1=CC=C(C=C1)C(O)C(F)(F)F,-,R936707,M1050473,-,-,"2,2,2-trifluoro-1-(4-methoxyphenyl)-ethanol",Koerner,charochkina,A5793,-,-,-,12.24,Log unit,25,?C,OC(c1ccc(cc1)OC)C(F)(F)F,{oh=5}
CCOC(=O)C1=CC(O)=C(C=C1)N(=O)=O,-,R936708,M1050474,-,-,3-hydroxy-4-nitrobenzoate-ethyl,Koerner,charochkina,A5793,-,-,-,6.11,Log unit,25,?C,Oc1cc(C(=O)OCC)ccc1N(=O)=O,{oh=8}
CCOC(=O)C1=CC(=C(O)C=C1)N(=O)=O,-,R936709,M118018,-,-,4-hydroxy-3-nitrobenzoate-ethyl,Koerner,charochkina,A5793,-,-,-,5.44,Log unit,25,?C,Oc1c(cc(C(=O)OCC)cc1)N(=O)=O,{oh=12}
CCC1=C(C(O)=C(C(C)=C1N(=O)=O)N(=O)=O)N(=O)=O,-,R936710,M1050475,-,-,"3-ethyl-5-methyl-2,4,6-trinitro-phenol",Koerner,charochkina,A5793,-,-,-,3.3,Log unit,25,?C,Oc1c(c(c(N(=O)=O)c(c1N(=O)=O)CC)C)N(=O)=O,{oh=0}
COC1=C(O)C(CC=C)=CC=C1,-,R936711,M56299,-,-,2-allyl-6-methoxy-phenol,Koerner,charochkina,A5793,-,-,-,10.38,Log unit,25,?C,Oc1c(cccc1CC=C)OC,{oh=6}
COC1=C(O)C=CC=C1CC=C,-,R936712,M1050476,-,-,3-allyl-2-methoxy-phenol,Koerner,charochkina,A5793,-,-,-,9.92,Log unit,25,?C,Oc1cccc(c1OC)CC=C,{oh=3}
COC1=CC(C=CC)=CC=C1O,-,R936713,M809,-,-,2-methoxy-4-(1-propenyl)-phenol,Koerner,charochkina,A5793,-,-,-,9.885,Log unit,25,?C,Oc1ccc(C=CC)cc1OC,{oh=0}
COC1=C(O)C(C=CC)=CC=C1,-,R936714,M24477,-,-,2-methoxy-6-(1-propenyl)-phenol,Koerner,charochkina,A5793,-,-,-,10.2,Log unit,25,?C,Oc1c(cccc1C=CC)OC,{oh=6}
CCCCC1=CC=CC=C1O,-,R936715,M27941,-,-,2-butyl-phenol,Koerner,charochkina,A5793,-,-,-,10.58,Log unit,25,?C,Oc1ccccc1CCCC,{oh=10}
CC(C)(C)C1=CC=CC=C1O,-,R936716,M12345,-,-,2-tert-Butyl-phenol,Koerner,charochkina,A5793,-,-,-,11.245,Log unit,25,?C,Oc1ccccc1C(C)(C)C,{oh=10}
CC(C)(C)C1=CC=CC(O)=C1,-,R936717,M1745,-,-,3-tert-butyl-phenol,Koerner,charochkina,A5793,-,-,-,10.0995,Log unit,25,?C,Oc1cccc(C(C)(C)C)c1,{oh=9}
CC(C)(C)C1=CC=C(O)C=C1,-,R936718,M9142,-,-,4-tert-butyl-phenol,Koerner,charochkina,A5793,-,-,-,10.31,Log unit,25,?C,Oc1ccc(C(C)(C)C)cc1,{oh=0}
CC(C)C1=C(O)C=CC=C1C,-,R936719,M69242,-,-,2-isopropyl-3-methyl-phenol,Koerner,charochkina,A5793,-,-,-,11.23,Log unit,25,?C,Oc1cccc(c1C(C)C)C,{oh=3}
CC(C)C1=C(O)C=CC(C)=C1,-,R936720,M29337,-,-,2-isopropyl-4-methyl-phenol,Koerner,charochkina,A5793,-,-,-,10.73,Log unit,25,?C,Oc1ccc(cc1C(C)C)C,{oh=3}
CC(C)C1=C(O)C=C(C)C=C1,-,R936721,M6751,-,-,2-isopropyl-5-methyl-phenol,Koerner,charochkina,A5793,-,-,-,10.62,Log unit,25,?C,Oc1c(ccc(c1)C)C(C)C,{oh=4}
CC(C)C1=CC=CC(C)=C1O,-,R936722,M27986,-,-,2-isopropyl-6-methyl-phenol,Koerner,charochkina,A5793,-,-,-,10.85,Log unit,25,?C,Oc1c(cccc1C(C)C)C,{oh=4}
CC(C)C1=CC=C(O)C(C)=C1,-,R936723,M25686,-,-,4-isopropyl-2-methyl-phenol,Koerner,charochkina,A5793,-,-,-,10.56,Log unit,25,?C,Oc1ccc(C(C)C)cc1C,{oh=0}
CC(C)C1=CC=C(O)C=C1C,-,R936724,M27985,-,-,4-isopropyl-3-methyl-phenol,Koerner,charochkina,A5793,-,-,-,10.31,Log unit,25,?C,Oc1ccc(C(C)C)c(c1)C,{oh=0}
CCOC1=CC(OCC)=CC(O)=C1,-,R936725,M124319,-,-,"3,5-diethoxy-phenol",Koerner,charochkina,A5793,-,-,-,9.37,Log unit,25,?C,Oc1cc(cc(c1)OCC)OCC,{oh=0}
OC1=C2C=CC=CC2=CC(Cl)=C1,-,R936726,M1050477,-,-,3-chloro-1-naphthol,Koerner,charochkina,A5793,-,-,-,8.4,Log unit,25,?C,Oc1cc(Cl)cc2c1cccc2,{oh=4}
OC1=CC=C(Cl)C2=C1C=CC=C2,-,R936727,M22288,-,-,4-CHLORO-1-NAPHTHOL,Koerner,charochkina,A5793,-,-,-,8.86,Log unit,25,?C,Oc1ccc(Cl)c2ccccc12,{oh=5}
OC1=C2C=CC=CC2=CC(Br)=C1,-,R936728,M1050478,-,-,3-bromo-1-naphthol,Koerner,charochkina,A5793,-,-,-,8.34,Log unit,25,?C,Oc1cc(Br)cc2c1cccc2,{oh=4}