Smiles,CASRN,Record ID,Molecule ID,External ID,N,Name,Introducer,Modifer,Article ID,PUBMED ID,PAGE,TABLE,pKa,pKa Unit,Temperature,Temperature Unit,Ionizable center smiles,IC group
OC(=O)C1=CC(=CC=C1Cl)N(=O)=O,-,R936087,M27018,-,-,2-chloro-5-nitro-benzoic acid,Koerner,charochkina,A5793,-,-,-,2.17,Log unit,25,?C,OC(=O)c1c(Cl)ccc(N(=O)=O)c1,"{co2h=12, aliphatic_carboxylic_acid=12}"
OC(=O)C1=C(C=CC=C1Cl)N(=O)=O,-,R936088,M30131,-,-,2-CHLORO-6-NITRO-BENZOIC ACID,Koerner,charochkina,A5793,-,-,-,1.34,Log unit,25,?C,OC(=O)c1c(Cl)cccc1N(=O)=O,"{co2h=12, aliphatic_carboxylic_acid=12}"
OCC1=C(C=CC=C1Br)C(O)=O,-,R936089,M1050316,-,-,3-bromo-2-methylol-benzoic acid,Koerner,charochkina,A5793,-,-,-,3.28,Log unit,25,?C,OC(=O)c1c(c(Br)ccc1)CO,"{co2h=9, aliphatic_carboxylic_acid=9}"
OCC1=C(C(O)=O)C(Br)=CC=C1,-,R936090,M1050317,-,-,6-bromo-2-methylol-benzoic acid,Koerner,charochkina,A5793,-,-,-,2.25,Log unit,25,?C,OC(=O)c1c(Br)cccc1CO,"{co2h=11, aliphatic_carboxylic_acid=11}"
OC(=O)C1=C(C=CC=C1Br)N(=O)=O,-,R936091,M124292,-,-,2-bromo-6-nitro-benzoic acid,Koerner,charochkina,A5793,-,-,-,1.37,Log unit,25,?C,OC(=O)c1c(Br)cccc1N(=O)=O,"{co2h=12, aliphatic_carboxylic_acid=12}"
OCC1=C(C=CC=C1I)C(O)=O,-,R936092,M1050318,-,-,3-iodine-2-methylol-benzoic acid,Koerner,charochkina,A5793,-,-,-,3.18,Log unit,25,?C,OC(=O)c1c(c(I)ccc1)CO,"{co2h=9, aliphatic_carboxylic_acid=9}"
OC(=O)C1=CC(OOI)=CC=C1,-,R936093,M1050319,-,-,m-iodohydroxy-benzoic acid,Koerner,charochkina,A5793,-,-,-,3.6,Log unit,25,?C,OC(=O)c1cc(OOI)ccc1,"{co2h=11, aliphatic_carboxylic_acid=11}"
OC(=O)C1=CC=C(OOI)C=C1,-,R936094,M1050320,-,-,p-iodohydroxy-benzoic acid,Koerner,charochkina,A5793,-,-,-,3.54,Log unit,25,?C,OC(=O)c1ccc(OOI)cc1,"{co2h=9, aliphatic_carboxylic_acid=9}"
COC1=C(CO)C(=CC=C1)C(O)=O,-,R936095,M1050321,-,-,3-methoxy-2-methylol-benzoic acid,Koerner,charochkina,A5793,-,-,-,3.58,Log unit,25,?C,OC(=O)c1cccc(OC)c1CO,"{co2h=12, aliphatic_carboxylic_acid=12}"
CCOC1=C(CO)C(=CC=C1)C(O)=O,-,R936096,M1050322,-,-,3-ethoxy-2-methylol-benzoic acid,Koerner,charochkina,A5793,-,-,-,3.62,Log unit,25,?C,OC(=O)c1cccc(OCC)c1CO,"{co2h=13, aliphatic_carboxylic_acid=13}"
NC(=O)C1=CC=CC=C1C(O)=O,-,R936097,M65052,-,-,phthalic acid-monoamide,Koerner,charochkina,A5793,-,-,-,3.75,Log unit,25,?C,OC(=O)c1ccccc1C(=O)N,"{co2h=11, aliphatic_carboxylic_acid=11}"
CS(=O)(=O)C1=CC(=CC=C1)C(O)=O,-,R936098,M124341,-,-,3-methylsulfonyl-benzoic acid,Koerner,charochkina,A5793,-,-,-,3.52,Log unit,25,?C,OC(=O)c1cccc(c1)S(=O)(=O)C,"{co2h=12, aliphatic_carboxylic_acid=12}"
CS(=O)(=O)C1=CC=C(C=C1)C(O)=O,-,R936099,M196,-,-,4-methylsulfonyl-benzoic acid,Koerner,charochkina,A5793,-,-,-,3.64,Log unit,25,?C,OC(=O)c1ccc(cc1)S(=O)(=O)C,"{co2h=6, aliphatic_carboxylic_acid=6}"
CCOP(=O)(OCC)C1=CC=CC(=C1)C(O)=O,-,R936100,M1050323,-,-,m-diethoxyphosphinylbenzoic acid,Koerner,charochkina,A5793,-,-,-,3.69,Log unit,25,?C,OC(=O)c1cc(P(=O)(OCC)OCC)ccc1,"{co2h=16, aliphatic_carboxylic_acid=16}"
CCOP(=O)(OCC)C1=CC=C(C=C1)C(O)=O,-,R936101,M1006812,-,-,p-diethoxyphosphinylbenzoic acid,Koerner,charochkina,A5793,-,-,-,3.615,Log unit,25,?C,OC(=O)c1ccc(P(=O)(OCC)OCC)cc1,"{co2h=14, aliphatic_carboxylic_acid=14}"
OC(=O)C1=C2C(=O)C3=CC=CC=C3C(=O)C2=CC=C1,-,R936102,M1050324,-,-,anthraquinonecarboxylic acid-1,Koerner,charochkina,A5793,-,-,-,3.37,Log unit,25,?C,OC(=O)c1c2C(=O)c3ccccc3C(=O)c2ccc1,"{co2h=11, aliphatic_carboxylic_acid=11}"
OC(=O)C1=CC=C2C(=O)C3=CC=CC=C3C(=O)C2=C1,-,R936103,M18956,-,-,anthraquinonecarboxylic acid-2,Koerner,charochkina,A5793,-,-,-,3.42,Log unit,25,?C,OC(=O)c1cc2C(=O)c3ccccc3C(=O)c2cc1,"{co2h=11, aliphatic_carboxylic_acid=11}"
OC(=O)CC1=CC=CC=C1,-,R936104,M12394,-,-,PHENYL-ACETIC ACID,Koerner,charochkina,A5793,-,-,-,4.31,Log unit,25,?C,OC(=O)Cc1ccccc1,"{co2h=7, aliphatic_carboxylic_acid=7}"
CC1=CC=CC=C1CC(O)=O,-,R936105,M67399,-,-,alpha-methylphenyl-acetic acid,Koerner,charochkina,A5793,-,-,-,4.35,Log unit,25,?C,OC(=O)Cc1ccccc1C,"{co2h=7, aliphatic_carboxylic_acid=7}"
CC1=CC=C(CC(O)=O)C=C1,-,R936106,M3595,-,-,p-tolyl-acetic acid,Koerner,charochkina,A5793,-,-,-,4.365,Log unit,25,?C,OC(=O)Cc1ccc(cc1)C,"{co2h=7, aliphatic_carboxylic_acid=7}"
CCC1=CC=C(CC(O)=O)C=C1,-,R936107,M33301,-,-,p-ethylphenylacetic acid,Koerner,charochkina,A5793,-,-,-,4.37,Log unit,25,?C,OC(=O)Cc1ccc(cc1)CC,"{co2h=7, aliphatic_carboxylic_acid=7}"
CC(C)C1=CC=C(CC(O)=O)C=C1,-,R936108,M74307,-,-,3-iso-propylphenyl-acetic acid,Koerner,charochkina,A5793,-,-,-,4.39,Log unit,25,?C,OC(=O)Cc1ccc(cc1)C(C)C,"{co2h=7, aliphatic_carboxylic_acid=7}"
CC(C)(C)C1=CC=C(CC(O)=O)C=C1,-,R936109,M37796,-,-,p-tert.-butylphenyl-acetic acid,Koerner,charochkina,A5793,-,-,-,4.42,Log unit,25,?C,OC(=O)Cc1ccc(cc1)C(C)(C)C,"{co2h=13, aliphatic_carboxylic_acid=13}"
OC(=O)C(C1=CC=CC=C1)C1=CC=CC=C1,-,R936110,M8924,-,-,Diphenyl-acetic acid,Koerner,charochkina,A5793,-,-,-,3.94,Log unit,25,?C,OC(=O)C(c1ccccc1)c1ccccc1,"{co2h=13, aliphatic_carboxylic_acid=13}"
OC(=O)C(C1=CC=CC=C1)(C1=CC=CC=C1)C1=CC=CC=C1,-,R936111,M22163,-,-,triphenyl-acetic acid,Koerner,charochkina,A5793,-,-,-,3.96,Log unit,25,?C,OC(=O)C(c1ccccc1)(c1ccccc1)c1ccccc1,"{co2h=19, aliphatic_carboxylic_acid=19}"
OC(=O)CC1=CC=CC2=CC=CC=C12,-,R936112,M8773,-,-,2-(1-naphthyl)-acetic acid,Koerner,charochkina,A5793,-,-,-,4.225,Log unit,25,?C,OC(=O)Cc1c2ccccc2ccc1,"{co2h=9, aliphatic_carboxylic_acid=9}"
OC(=O)CC1=CC2=CC=CC=C2C=C1,-,R936113,M21911,-,-,beta-naphthyl-acetic acid,Koerner,charochkina,A5793,-,-,-,4.275,Log unit,25,?C,OC(=O)Cc1cc2ccccc2cc1,"{co2h=9, aliphatic_carboxylic_acid=9}"
OC(=O)CCC1=CC=CC=C1,-,R936114,M13058,-,-,beta-phenyl-propionic acid,Koerner,charochkina,A5793,-,-,-,4.66,Log unit,25,?C,OC(=O)CCc1ccccc1,"{co2h=8, aliphatic_carboxylic_acid=8}"
CC1=CC=CC=C1CCC(O)=O,-,R936115,M124325,-,-,beta-(o-tolyl)-propionic acid,Koerner,charochkina,A5793,-,-,-,4.66,Log unit,25,?C,OC(=O)CCc1ccccc1C,"{co2h=8, aliphatic_carboxylic_acid=8}"
CC1=CC(CCC(O)=O)=CC=C1,-,R936116,M124327,-,-,beta-(m-tolyl)-propionic acid,Koerner,charochkina,A5793,-,-,-,4.68,Log unit,25,?C,OC(=O)CCc1cccc(c1)C,"{co2h=8, aliphatic_carboxylic_acid=8}"
CC1=CC=C(CCC(O)=O)C=C1,-,R936117,M69618,-,-,beta-(p-tolyl)-propionic acid,Koerner,charochkina,A5793,-,-,-,4.68,Log unit,25,?C,OC(=O)CCc1ccc(cc1)C,"{co2h=8, aliphatic_carboxylic_acid=8}"
OC(=O)CCCC1=CC=CC=C1,-,R936118,M7770,-,-,gamma-phenyl-n-butyric acid,Koerner,charochkina,A5793,-,-,-,4.76,Log unit,25,?C,OC(=O)CCCc1ccccc1,"{co2h=9, aliphatic_carboxylic_acid=9}"
OC(=O)C=CC1=CC=CC=C1,-,R936119,M12148,-,-,TRANS-CINNAMIC ACID,Koerner,charochkina,A5793,-,-,-,4.43,Log unit,25,?C,OC(=O)C=Cc1ccccc1,"{co2h=8, aliphatic_carboxylic_acid=8}"
CC1=CC=CC=C1C=CC(O)=O,-,R936120,M746398,-,-,o-methyl-trans-cinnamic acid,Koerner,charochkina,A5793,-,-,-,4.5,Log unit,25,?C,OC(=O)C=Cc1ccccc1C,"{co2h=8, aliphatic_carboxylic_acid=8}"
CC1=CC(C=CC(O)=O)=CC=C1,-,R936121,M105272,-,-,meta-methyl-trans-cinnamic acid,Koerner,charochkina,A5793,-,-,-,4.44,Log unit,25,?C,OC(=O)C=Cc1cccc(c1)C,"{co2h=8, aliphatic_carboxylic_acid=8}"
CC1=CC=C(C=CC(O)=O)C=C1,-,R936122,M24137,-,-,para-methyl-trans-cinnamic acid,Koerner,charochkina,A5793,-,-,-,4.56,Log unit,25,?C,OC(=O)C=Cc1ccc(cc1)C,"{co2h=8, aliphatic_carboxylic_acid=8}"
OC(=O)C(C(O)=O)C1=CC=CC=C1,-,R936123,M71597,-,-,Phenylmalonic acid,Koerner,charochkina,A5793,-,-,-,2.85,Log unit,25,?C,OC(=O)C(c1ccccc1)C(=O)O,"{co2h=7, aliphatic_carboxylic_acid=7}"
OC(=O)CC(C(O)=O)C1=CC=CC=C1,-,R936124,M67339,-,-,Phenylsuccinic acid,Koerner,charochkina,A5793,-,-,-,4.08,Log unit,25,?C,OC(=O)C(c1ccccc1)CC(=O)O,"{co2h=7, aliphatic_carboxylic_acid=7}"
OC(=O)CC(CC1=CC=CC=C1)C(O)=O,-,R936125,M247275,-,-,benzylsuccinic acid,Koerner,charochkina,A5793,-,-,-,4.41,Log unit,25,?C,OC(=O)C(Cc1ccccc1)CC(=O)O,"{co2h=8, aliphatic_carboxylic_acid=8}"
OC(=O)CC(C(O)=O)(C1=CC=CC=C1)C1=CC=CC=C1,-,R936126,M32410,-,-,"alpha,alpha-diphenylsuccinic acid",Koerner,charochkina,A5793,-,-,-,3.35,Log unit,25,?C,OC(=O)C(c1ccccc1)(c1ccccc1)CC(=O)O,"{co2h=13, aliphatic_carboxylic_acid=13}"
OC(=O)C(C(C(O)=O)C1=CC=CC=C1)C1=CC=CC=C1,-,R936127,M68985,-,-,rac-alpha-alpha'-diphenylsuccinic acid,Koerner,charochkina,A5793,-,-,-,3.88,Log unit,25,?C,OC(=O)C(c1ccccc1)C(c1ccccc1)C(=O)O,"{co2h=7, aliphatic_carboxylic_acid=7}"
OC(=O)CC(CC1=CC=CC=C1)(C(O)=O)C1=CC=CC=C1,-,R936128,M1050325,-,-,alpha-phenyl-alpha-benzylsuccinic acid,Koerner,charochkina,A5793,-,-,-,3.69,Log unit,25,?C,OC(=O)C(Cc1ccccc1)(c1ccccc1)CC(=O)O,"{co2h=14, aliphatic_carboxylic_acid=14}"
OC(=O)CC(CC1=CC=CC=C1)(CC1=CC=CC=C1)C(O)=O,-,R936129,M1050326,-,-,"alpha,alpha-dibenzylsuccinic acid",Koerner,charochkina,A5793,-,-,-,4.3,Log unit,25,?C,OC(=O)C(Cc1ccccc1)(Cc1ccccc1)CC(=O)O,"{co2h=8, aliphatic_carboxylic_acid=8}"
OC(=O)CC(CCC1=CC=CC=C1)(C(O)=O)C1=CC=CC=C1,-,R936130,M1050327,-,-,alpha-phenyl-alpha-phenethylsuccinic acid,Koerner,charochkina,A5793,-,-,-,4,Log unit,25,?C,OC(=O)C(CCc1ccccc1)(c1ccccc1)CC(=O)O,"{co2h=15, aliphatic_carboxylic_acid=15}"
OC(=O)CCC(C(O)=O)(C1=CC=CC=C1)C1=CC=CC=C1,-,R936131,M27679,-,-,"alpha,alpha-diphenylglutaric acid",Koerner,charochkina,A5793,-,-,-,4.21,Log unit,25,?C,OC(=O)C(c1ccccc1)(c1ccccc1)CCC(=O)O,"{co2h=13, aliphatic_carboxylic_acid=13}"
OC(=O)CCCC(C(O)=O)(C1=CC=CC=C1)C1=CC=CC=C1,-,R936132,M46916,-,-,"alpha,alpha-diphenyladipic acid",Koerner,charochkina,A5793,-,-,-,4.47,Log unit,25,?C,OC(=O)C(c1ccccc1)(c1ccccc1)CCCC(=O)O,"{co2h=13, aliphatic_carboxylic_acid=13}"
OC(=O)CC(C(CC(O)=O)C1=CC=CC=C1)C1=CC=CC=C1,-,R936133,M1050328,-,-,"beta,beta'-diphenyladipic acid",Koerner,charochkina,A5793,-,-,-,4.545,Log unit,25,?C,OC(=O)CC(C(c1ccccc1)CC(=O)O)c1ccccc1,"{co2h=15, aliphatic_carboxylic_acid=15}"
OC(=O)CCCCC(C(O)=O)(C1=CC=CC=C1)C1=CC=CC=C1,-,R936134,M47160,-,-,"alpha,alpha-diphenylpimelic acid",Koerner,charochkina,A5793,-,-,-,4.58,Log unit,25,?C,OC(=O)C(c1ccccc1)(c1ccccc1)CCCCC(=O)O,"{co2h=13, aliphatic_carboxylic_acid=13}"
OC(=O)CCCCCC(C(O)=O)(C1=CC=CC=C1)C1=CC=CC=C1,-,R936135,M46883,-,-,"alpha,alpha-diphenylsuberic acid",Koerner,charochkina,A5793,-,-,-,4.61,Log unit,25,?C,OC(=O)C(c1ccccc1)(c1ccccc1)CCCCCC(=O)O,"{co2h=13, aliphatic_carboxylic_acid=13}"
OC(=O)CCCCCCC(C(O)=O)(C1=CC=CC=C1)C1=CC=CC=C1,-,R936136,M47237,-,-,"alpha,alpha-diphenylazelaic acid",Koerner,charochkina,A5793,-,-,-,4.63,Log unit,25,?C,OC(=O)C(c1ccccc1)(c1ccccc1)CCCCCCC(=O)O,"{co2h=13, aliphatic_carboxylic_acid=13}"
OC(=O)C(Br)C1=CC=CC=C1,-,R936137,M74756,-,-,phenyl-bromo-acetic acid,Koerner,charochkina,A5793,-,-,-,2.21,Log unit,25,?C,OC(=O)C(Br)c1ccccc1,"{co2h=10, aliphatic_carboxylic_acid=10}"
OC(=O)CC1=CC=C(F)C=C1,-,R936138,M6745,-,-,p-fluorophenyl-acetic acid,Koerner,charochkina,A5793,-,-,-,4.23,Log unit,25,?C,OC(=O)Cc1ccc(F)cc1,"{co2h=8, aliphatic_carboxylic_acid=8}"
OC(=O)CC1=CC(Cl)=CC=C1,-,R936139,M12249,-,-,o-chlorophenyl-acetic acid,Koerner,charochkina,A5793,-,-,-,4.14,Log unit,25,?C,OC(=O)Cc1cc(Cl)ccc1,"{co2h=10, aliphatic_carboxylic_acid=10}"
OC(=O)CC1=CC(Cl)=CC=C1,-,R936140,M12249,-,-,m-chlorophenyl-acetic acid,Koerner,charochkina,A5793,-,-,-,4.125,Log unit,25,?C,OC(=O)Cc1cc(Cl)ccc1,"{co2h=10, aliphatic_carboxylic_acid=10}"
OC(=O)CC1=CC=C(Cl)C=C1,-,R936141,M1263,-,-,p-chlorophenyl-acetic acid,Koerner,charochkina,A5793,-,-,-,4.18385,Log unit,25,?C,OC(=O)Cc1ccc(Cl)cc1,"{co2h=8, aliphatic_carboxylic_acid=8}"
OC(=O)CC1=CC=CC=C1Br,-,R936142,M117870,-,-,o-bromophenyl-acetic acid,Koerner,charochkina,A5793,-,-,-,4.05,Log unit,25,?C,OC(=O)Cc1c(Br)cccc1,"{co2h=10, aliphatic_carboxylic_acid=10}"
OC(=O)CC1=CC=C(Br)C=C1,-,R936143,M9317,-,-,p-bromophenyl-acetic acid,Koerner,charochkina,A5793,-,-,-,4.19,Log unit,25,?C,OC(=O)Cc1ccc(Br)cc1,"{co2h=8, aliphatic_carboxylic_acid=8}"
OC(=O)CC1=CC=CC=C1I,-,R936144,M34526,-,-,2-iodophenyl-acetic acid,Koerner,charochkina,A5793,-,-,-,4.04,Log unit,25,?C,OC(=O)Cc1c(I)cccc1,"{co2h=10, aliphatic_carboxylic_acid=10}"
OC(=O)CC1=CC(I)=CC=C1,-,R936145,M6982,-,-,m-iodophenyl-acetic acid,Koerner,charochkina,A5793,-,-,-,4.16,Log unit,25,?C,OC(=O)Cc1cc(I)ccc1,"{co2h=10, aliphatic_carboxylic_acid=10}"
OC(=O)CC1=CC=C(I)C=C1,-,R936146,M2655,-,-,p-iodophenyl-acetic acid,Koerner,charochkina,A5793,-,-,-,4.18,Log unit,25,?C,OC(=O)Cc1ccc(I)cc1,"{co2h=8, aliphatic_carboxylic_acid=8}"
OC(=O)CCC1=CC=CC=C1Cl,-,R936147,M124324,-,-,beta-(ortho-chlorophenyl)-propionic acid,Koerner,charochkina,A5793,-,-,-,4.58,Log unit,25,?C,OC(=O)CCc1c(Cl)cccc1,"{co2h=11, aliphatic_carboxylic_acid=11}"
OC(=O)CCC1=CC(Cl)=CC=C1,-,R936148,M124326,-,-,b-(m-chlorophenyl)-propionic acid,Koerner,charochkina,A5793,-,-,-,4.58,Log unit,25,?C,OC(=O)CCc1cc(Cl)ccc1,"{co2h=11, aliphatic_carboxylic_acid=11}"
OC(=O)CCC1=CC=C(Cl)C=C1,-,R936149,M124328,-,-,b-(p-chlorophenyl)-propionic acid,Koerner,charochkina,A5793,-,-,-,4.635,Log unit,25,?C,OC(=O)CCc1ccc(Cl)cc1,"{co2h=9, aliphatic_carboxylic_acid=9}"
OC(=O)C=CC1=CC=CC=C1Cl,-,R936150,M28660,-,-,o-chloro-trans-cinnamic acid,Koerner,charochkina,A5793,-,-,-,4.32,Log unit,25,?C,OC(=O)C=Cc1c(Cl)cccc1,"{co2h=11, aliphatic_carboxylic_acid=11}"
OC(=O)C=CC1=CC(Cl)=CC=C1,-,R936151,M743507,-,-,m-chloro-trans-cinnamic acid,Koerner,charochkina,A5793,-,-,-,4.29,Log unit,25,?C,OC(=O)C=Cc1cc(Cl)ccc1,"{co2h=11, aliphatic_carboxylic_acid=11}"
OC(=O)C=CC1=CC=C(Cl)C=C1,-,R936152,M25473,-,-,p-Chloro-trans-cinnamic acid,Koerner,charochkina,A5793,-,-,-,4.41,Log unit,25,?C,OC(=O)C=Cc1ccc(Cl)cc1,"{co2h=9, aliphatic_carboxylic_acid=9}"
OC(=O)C=CC1=CC=CC=C1Br,-,R936153,M751741,-,-,o-bromo-trans-cinnamic acid,Koerner,charochkina,A5793,-,-,-,4.32,Log unit,25,?C,OC(=O)C=Cc1c(Br)cccc1,"{co2h=11, aliphatic_carboxylic_acid=11}"
CC(C#N)(C(O)=O)C1=CC=CC=C1,-,R936154,M1050329,-,-,alpha-benzyl-alpha-cyano-propionic acid,Koerner,charochkina,A5793,-,-,-,2.29,Log unit,25,?C,OC(=O)C(c1ccccc1)(C)C#N,"{co2h=12, aliphatic_carboxylic_acid=12}"
OC(C(O)=O)C1=CC=CC=C1,-,R936155,M4751,-,-,Mandelic acid,Koerner,charochkina,A5793,-,-,-,3.4,Log unit,25,?C,OC(=O)C(c1ccccc1)O,"{co2h=8, aliphatic_carboxylic_acid=8}"
OC(C([O-])=O)C1=CC=CC=C1,-,R936156,M4751,-,-,Mandelic acid,Koerner,charochkina,A5793,-,-,-,16.4,Log unit,25,?C,OC(c1ccccc1)C(=O)[O-],{oh=5}
CC(Cl)CC(O)=O,-,R935957,M70459,-,-,3-chloro-butanoic acid,Koerner,charochkina,A5793,-,-,-,4.2,Log unit,25,?C,OC(=O)CC(Cl)C,"{co2h=6, aliphatic_carboxylic_acid=6}"
CCOC(=O)CC(O)=O,-,R935958,M68548,-,-,2-ethoxycarbonyl-acetic acid,Koerner,charochkina,A5793,-,-,-,3.45,Log unit,25,?C,OC(=O)CC(=O)OCC,"{co2h=2, aliphatic_carboxylic_acid=2}"
CCCC(O)C(O)=O,-,R935959,M22553,-,-,2-hydroxy-pentanoic acid,Koerner,charochkina,A5793,-,-,-,3.59,Log unit,25,?C,OC(=O)C(O)CCC,"{co2h=2, aliphatic_carboxylic_acid=2}"
CC(Cl)CCC(O)=O,-,R935960,M1018438,-,-,4-chloro-pentanoic acid,Koerner,charochkina,A5793,-,-,-,4.4,Log unit,25,?C,OC(=O)CCC(Cl)C,"{co2h=7, aliphatic_carboxylic_acid=7}"
OC(=O)CON(=O)=O,-,R935961,M1018439,-,-,nitrooxyacetic acid,Koerner,charochkina,A5793,-,-,-,2.26,Log unit,25,?C,OC(=O)CON(=O)=O,"{co2h=7, aliphatic_carboxylic_acid=7}"
OC(=O)CS,-,R935962,M1693,-,-,Mercaptoacetic acid,Koerner,charochkina,A5793,-,-,-,3.5855,Log unit,25,?C,OC(=O)CS,"{co2h=4, aliphatic_carboxylic_acid=4}"
[O-]C(=O)CS,-,R935963,M1693,-,-,Mercaptoacetic acid,Koerner,charochkina,A5793,-,-,-,10.3,Log unit,25,?C,SCC(=O)[O-],{sh=0}
CCCCCCCCCCCC(O)=O,-,R935964,M8720,-,-,DODECANOIC ACID,Koerner,charochkina,A5793,-,-,-,5.3,Log unit,25,?C,OC(=O)CCCCCCCCCCC,"{co2h=2, aliphatic_carboxylic_acid=2}"
CCCCCC=CCC=CCCCCCCCC(O)=O,-,R935965,M17226,-,-,"9,12-Octadecadienoic acid",Koerner,charochkina,A5793,-,-,-,4.77,Log unit,25,?C,OC(=O)CCCCCCCC=CCC=CCCCCC,"{co2h=2, aliphatic_carboxylic_acid=2}"
CC1=CC(=CC=C1)C(O)=O,-,R935966,M3418,-,-,Benzoic acid,Koerner,charochkina,A5793,-,-,-,4.2,Log unit,25,?C,OC(=O)c1cccc(c1)C,"{co2h=9, aliphatic_carboxylic_acid=9}"
CC1=CC=CC=C1C(O)=O,-,R935967,M14460,-,-,ortho-tolylic acid,Koerner,charochkina,A5793,-,-,-,3.914,Log unit,25,?C,OC(=O)c1ccccc1C,"{co2h=6, aliphatic_carboxylic_acid=6}"
CC1=CC(=CC=C1)C(O)=O,-,R935968,M3418,-,-,m-tolylic acid,Koerner,charochkina,A5793,-,-,-,4.27,Log unit,25,?C,OC(=O)c1cccc(c1)C,"{co2h=9, aliphatic_carboxylic_acid=9}"
CC1=CC=C(C=C1)C(O)=O,-,R935969,M6364,-,-,p-tolylic acid,Koerner,charochkina,A5793,-,-,-,4.405,Log unit,25,?C,OC(=O)c1ccc(cc1)C,"{co2h=6, aliphatic_carboxylic_acid=6}"
CC1=C(C)C(=CC=C1)C(O)=O,-,R935970,M22284,-,-,"2,3-dimethyl-benzoic acid",Koerner,charochkina,A5793,-,-,-,3.758,Log unit,25,?C,OC(=O)c1cccc(c1C)C,"{co2h=10, aliphatic_carboxylic_acid=10}"
CC1=CC(C)=C(C=C1)C(O)=O,-,R935971,M22404,-,-,"2,4-dimethyl-benzoic acid",Koerner,charochkina,A5793,-,-,-,4.2595,Log unit,25,?C,OC(=O)c1ccc(cc1C)C,"{co2h=7, aliphatic_carboxylic_acid=7}"
CC1=CC(C(O)=O)=C(C)C=C1,-,R935972,M13358,-,-,"2,5-dimethyl-benzoic acid",Koerner,charochkina,A5793,-,-,-,4.0205,Log unit,25,?C,OC(=O)c1c(ccc(c1)C)C,"{co2h=7, aliphatic_carboxylic_acid=7}"
CC1=CC=CC(C)=C1C(O)=O,-,R935973,M23003,-,-,"2,6-dimethyl-benzoic acid",Koerner,charochkina,A5793,-,-,-,3.35,Log unit,25,?C,OC(=O)c1c(cccc1C)C,"{co2h=7, aliphatic_carboxylic_acid=7}"
CC1=C(C)C=C(C=C1)C(O)=O,-,R935974,M22599,-,-,"3,4-dimethyl-benzoic acid",Koerner,charochkina,A5793,-,-,-,4.455,Log unit,25,?C,OC(=O)c1ccc(c(c1)C)C,"{co2h=6, aliphatic_carboxylic_acid=6}"
CC1=CC(=CC(C)=C1)C(O)=O,-,R935975,M20932,-,-,"3,5-dimethyl-benzoic acid",Koerner,charochkina,A5793,-,-,-,4.345,Log unit,25,?C,OC(=O)c1cc(cc(c1)C)C,"{co2h=6, aliphatic_carboxylic_acid=6}"
CC1=CC(C)=C(C(O)=O)C(C)=C1,-,R935976,M2555,-,-,"2,4,6-trimethyl-benzoic acid",Koerner,charochkina,A5793,-,-,-,3.498,Log unit,25,?C,OC(=O)c1c(cc(cc1C)C)C,"{co2h=11, aliphatic_carboxylic_acid=11}"
CCC1=CC=CC=C1C(O)=O,-,R935977,M124301,-,-,2-ethyl-benzoic acid,Koerner,charochkina,A5793,-,-,-,3.79,Log unit,25,?C,OC(=O)c1ccccc1CC,"{co2h=6, aliphatic_carboxylic_acid=6}"
CCC1=CC=C(C=C1)C(O)=O,-,R935978,M22614,-,-,p-ethyl-benzoic acid,Koerner,charochkina,A5793,-,-,-,4.35,Log unit,25,?C,OC(=O)c1ccc(cc1)CC,"{co2h=6, aliphatic_carboxylic_acid=6}"
CC(C)C1=CC=CC=C1C(O)=O,-,R935979,M26883,-,-,2-iso-propyl-benzoic acid,Koerner,charochkina,A5793,-,-,-,3.63,Log unit,25,?C,OC(=O)c1ccccc1C(C)C,"{co2h=11, aliphatic_carboxylic_acid=11}"
CC(C)C1=CC=C(C=C1)C(O)=O,-,R935980,M21401,-,-,p-iso-propy-benzoic acid,Koerner,charochkina,A5793,-,-,-,4.355,Log unit,25,?C,OC(=O)c1ccc(cc1)C(C)C,"{co2h=11, aliphatic_carboxylic_acid=11}"
CC(C)(C)C1=CC=CC=C1C(O)=O,-,R935981,M69231,-,-,2-tert.-butyl-benzoic acid,Koerner,charochkina,A5793,-,-,-,3.54,Log unit,25,?C,OC(=O)c1ccccc1C(C)(C)C,"{co2h=12, aliphatic_carboxylic_acid=12}"
CC(C)(C)C1=CC=CC(=C1)C(O)=O,-,R935982,M124345,-,-,m-tert.-butyl-benzoic acid,Koerner,charochkina,A5793,-,-,-,4.24,Log unit,25,?C,OC(=O)c1cccc(c1)C(C)(C)C,"{co2h=6, aliphatic_carboxylic_acid=6}"
CC(C)(C)C1=CC=C(C=C1)C(O)=O,-,R935983,M18258,-,-,p-tert.-butyl-benzoic acid,Koerner,charochkina,A5793,-,-,-,4.39,Log unit,25,?C,OC(=O)c1ccc(cc1)C(C)(C)C,"{co2h=12, aliphatic_carboxylic_acid=12}"
OC(=O)C1=CC=CC=C1C1=CC=CC=C1,-,R935984,M24160,-,-,2-phenyl-benzoic acid,Koerner,charochkina,A5793,-,-,-,3.46,Log unit,25,?C,OC(=O)c1c(c2ccccc2)cccc1,"{co2h=12, aliphatic_carboxylic_acid=12}"
OC(=O)C1=CC=CC2=CC=CC=C12,-,R935985,M6298,-,-,1-Naphthoic Acid,Koerner,charochkina,A5793,-,-,-,3.6185,Log unit,25,?C,OC(=O)c1c2ccccc2ccc1,"{co2h=8, aliphatic_carboxylic_acid=8}"
OC(=O)C1=CC2=CC=CC=C2C=C1,-,R935986,M18051,-,-,2-NAPHTHOIC ACID,Koerner,charochkina,A5793,-,-,-,4.165,Log unit,25,?C,OC(=O)c1cc2ccccc2cc1,"{co2h=8, aliphatic_carboxylic_acid=8}"
CC1=C(C(O)=O)C2=CC=CC=C2C=C1,-,R935987,M69770,-,-,2-Methyl-1-naphthoic acid,Koerner,charochkina,A5793,-,-,-,3.1,Log unit,25,?C,OC(=O)c1c2ccccc2ccc1C,"{co2h=9, aliphatic_carboxylic_acid=9}"
CC1=CC2=CC=CC=C2C(C(O)=O)=C1C,-,R935988,M124278,-,-,"2,3-dimethyl-1-naphthoic acid",Koerner,charochkina,A5793,-,-,-,3.3,Log unit,25,?C,OC(=O)c1c2ccccc2cc(c1C)C,"{co2h=9, aliphatic_carboxylic_acid=9}"
OC(=O)C1=CC=CC2=CC3=CC=CC=C3C=C12,-,R935989,M1050310,-,-,anthracene-1-carboxylic acid,Koerner,charochkina,A5793,-,-,-,3.68,Log unit,25,?C,OC(=O)c1c2cc3ccccc3cc2ccc1,"{co2h=10, aliphatic_carboxylic_acid=10}"