Smiles,CASRN,Record ID,Molecule ID,External ID,N,Name,Introducer,Modifer,Article ID,PUBMED ID,PAGE,TABLE,pKa,pKa Unit,Temperature,Temperature Unit,Ionizable center smiles,IC group
CC(C(O)C1=CC=CC=C1)N(C)C,-,R945524,M21635,-,-,(2-dimethylamino-1-hydroxy)propylbenzene,Koerner,charochkina,A5793,-,-,-,9.2,Log unit,25,?C,N(C(C(c1ccccc1)O)C)(C)C,7
CCC(C)(CN(C)C)OC(=O)C1=CC=CC=C1,-,R945525,M56476,-,-,(1-dimethylaminomethyl-1-methyl)propoxycarbonylbenzene,Koerner,charochkina,A5793,-,-,-,8.09,Log unit,25,?C,N(CC(OC(=O)c1ccccc1)(CC)C)(C)C,12
CCOC1=CC=C(N)C=C1,-,R945326,M19743,-,-,4-ETHOXY-ANILINE,Koerner,charochkina,A5793,-,-,-,5.2,Log unit,25,?C,Nc1ccc(cc1)OCC,9
CCOC(=O)C1=CC=CC=C1N,-,R945327,M17843,-,-,2-ethoxycarbonyl-aniline,Koerner,charochkina,A5793,-,-,-,2.18,Log unit,25,?C,Nc1ccccc1C(=O)OCC,11
CCOC(=O)C1=CC=C(N)C=C1,-,R945328,M844,-,-,4-ethoxycarbonyl-aniline,Koerner,charochkina,A5793,-,-,-,2.437,Log unit,25,?C,Nc1ccc(cc1)C(=O)OCC,11
CCOC(=O)C1=C(C=CC(N)=C1)N(=O)=O,-,R945329,M1107084,-,-,3-ethoxycarbonyl-4-nitroaniline,Koerner,charochkina,A5793,-,-,-,-0.11,Log unit,25,?C,N(=O)(=O)c1ccc(cc1C(=O)OCC)N,3
CCNC1=CC=CC=C1,-,R945330,M7977,-,-,n-ethylaniline,Koerner,charochkina,A5793,-,-,-,5.12,Log unit,25,?C,N(c1ccccc1)CC,4
CCC1=CC=CC=C1N,-,R945331,M6855,-,-,2-ethyl-aniline,Koerner,charochkina,A5793,-,-,-,4.37,Log unit,25,?C,Nc1ccccc1CC,8
CCC1=CC=CC(N)=C1,-,R945332,M284,-,-,3-ethyl-aniline,Koerner,charochkina,A5793,-,-,-,4.7,Log unit,25,?C,Nc1cccc(c1)CC,4
CCOC(=O)COC1=CC=C(N)C=C1,-,R945333,M1107085,-,-,4-ethoxycarbonylmethoxyaniline,Koerner,charochkina,A5793,-,-,-,5.09,Log unit,25,?C,Nc1ccc(cc1)OCC(=O)OCC,13
CCOC(=O)C1=CC(N)=CC(=C1)N(=O)=O,-,R945334,M472217,-,-,3-ethoxycarbonyl-5-nitroaniline,Koerner,charochkina,A5793,-,-,-,0.98,Log unit,25,?C,Nc1cc(cc(c1)C(=O)OCC)N(=O)=O,9
CCC1=CC=C(N)C=C1,-,R945335,M4030,-,-,4-ethylaniline,Koerner,charochkina,A5793,-,-,-,5,Log unit,25,?C,Nc1ccc(cc1)CC,8
CCN(C)C1=CC=CC=C1,-,R945336,M8732,-,-,N-ethyl-N-methylaniline,Koerner,charochkina,A5793,-,-,-,6.02,Log unit,25,?C,N(c1ccccc1)(C)CC,4
CCNC1=CC=CC=C1C,-,R945337,M18116,-,-,N-Ethyl-2-methylaniline,Koerner,charochkina,A5793,-,-,-,4.96,Log unit,25,?C,N(c1ccccc1C)CC,4
CCNC1=CC=C(C)C=C1,-,R945338,M22695,-,-,N-Ethyl-4-methylaniline,Koerner,charochkina,A5793,-,-,-,5.645,Log unit,25,?C,N(c1ccc(cc1)C)CC,4
CCC(C)(CC)NC1=CC=CC=C1,-,R945339,M1107086,-,-,N-(1-ethyl-1-methyl)propylaniline,Koerner,charochkina,A5793,-,-,-,6.32,Log unit,25,?C,N(c1ccccc1)C(C)(CC)CC,4
CCCN(CC)C1=CC=CC=C1,-,R945340,M1107087,-,-,N-ethyl-N-n-propylaniline,Koerner,charochkina,A5793,-,-,-,6.395,Log unit,25,?C,N(c1ccccc1)(CC)CCC,4
CCSC1=CC=C(N)C=C1,-,R945341,M1107088,-,-,4-ethylthioaniline,Koerner,charochkina,A5793,-,-,-,4,Log unit,25,?C,Nc1ccc(SCC)cc1,7
NC1=CC=CC=C1F,-,R945342,M2917,-,-,2-fluoro-aniline,Koerner,charochkina,A5793,-,-,-,3.225,Log unit,25,?C,Nc1c(F)cccc1,7
NC1=CC(F)=CC=C1,-,R945343,M9559,-,-,3-fluoro-aniline,Koerner,charochkina,A5793,-,-,-,3.58,Log unit,25,?C,Nc1cc(F)ccc1,7
NC1=CC=C(F)C=C1,-,R945344,M5817,-,-,4-fluoro-aniline,Koerner,charochkina,A5793,-,-,-,4.65,Log unit,25,?C,Nc1ccc(F)cc1,5
NC1=CC(=CC=C1F)N(=O)=O,-,R945345,M66194,-,-,2-Fluoro-5-nitroaniline,Koerner,charochkina,A5793,-,-,-,1.09,Log unit,25,?C,N(=O)(=O)c1ccc(F)c(c1)N,5
NC1=CC=C(F)C=C1N(=O)=O,-,R945346,M66166,-,-,4-Fluoro-2-nitroaniline,Koerner,charochkina,A5793,-,-,-,-0.39,Log unit,25,?C,Nc1ccc(F)cc1N(=O)=O,5
NC1=CC=C(F)C(=C1)N(=O)=O,-,R945347,M20210,-,-,4-Fluoro-3-nitroaniline,Koerner,charochkina,A5793,-,-,-,2.4,Log unit,25,?C,Nc1ccc(F)c(c1)N(=O)=O,5
NC1=CC=CC=C1C=O,-,R945348,M21294,-,-,2-formylaniline,Koerner,charochkina,A5793,-,-,-,1.36,Log unit,25,?C,Nc1ccccc1C=O,8
NC1=CC=C(C=O)C=C1,-,R945349,M21701,-,-,4-formyl-aniline,Koerner,charochkina,A5793,-,-,-,1.76,Log unit,25,?C,Nc1ccc(cc1)C=O,8
CCCCCCNC1=CC=CC=C1,-,R945350,M211874,-,-,N-n-hexylaniline,Koerner,charochkina,A5793,-,-,-,5.42,Log unit,25,?C,N(c1ccccc1)CCCCCC,4
CCCC(C)(C)NC1=CC=CC=C1,-,R945351,M1107089,-,-,N-t-hexylaniline,Koerner,charochkina,A5793,-,-,-,6.3,Log unit,25,?C,N(c1ccccc1)C(C)(C)CCC,4
NC1=CC=CC=C1O,-,R945352,M1251,-,-,2-hydroxy-aniline,Koerner,charochkina,A5793,-,-,-,4.7605,Log unit,25,?C,Nc1ccccc1O,4
NC1=CC=CC(O)=C1,-,R945353,M1697,-,-,3-hydroxy-aniline,Koerner,charochkina,A5793,-,-,-,4.27,Log unit,25,?C,Nc1cccc(c1)O,7
NC1=CC=C(O)C=C1,-,R945354,M8656,-,-,4-hydroxy-aniline,Koerner,charochkina,A5793,-,-,-,5.575,Log unit,25,?C,Nc1ccc(cc1)O,4
CC1=C(C)C=C(O)C(N)=C1,-,R945355,M77662,-,-,"2-hydroxy-4,5-dimethylaniline",Koerner,charochkina,A5793,-,-,-,5.26,Log unit,25,?C,Nc1c(O)cc(c(C)c1)C,9
OCCNC1=CC=CC=C1,-,R945356,M19141,-,-,N-(2-Hydroxyethyl)aniline,Koerner,charochkina,A5793,-,-,-,4.14,Log unit,25,?C,N(c1ccccc1)CCO,4
CC1=CC=CC=C1NCCO,-,R945357,M19459,-,-,N-(2-hydroxyethyl)-o-methylaniline,Koerner,charochkina,A5793,-,-,-,4.18,Log unit,25,?C,N(c1ccccc1C)CCO,4
COC1=CC(CN)=CC=C1O,-,R945358,M12553,-,-,3-hydroxy-2-methoxybenzylamine,Koerner,charochkina,A5793,-,-,-,8.94,Log unit,25,?C,NCc1ccc(O)c(c1)OC,6
COC1=CC(CN)=CC=C1O,-,R945359,M12553,-,-,3-hydroxy-2-methoxybenzylamine,Koerner,charochkina,A5793,-,-,-,10.4,Log unit,25,?C,Oc1ccc(CN)cc1OC,0
COC1=C(O)C(CN)=CC=C1,-,R945360,M1107090,-,-,1-hydroxy-2-methoxybenzylamine,Koerner,charochkina,A5793,-,-,-,8.7,Log unit,25,?C,NCc1cccc(OC)c1O,10
COC1=C(O)C(CN)=CC=C1,-,R945361,M1107090,-,-,1-hydroxy-2-methoxybenzylamine,Koerner,charochkina,A5793,-,-,-,10.5,Log unit,25,?C,Oc1c(cccc1CN)OC,6
COC1=C(O)C=CC=C1CN,-,R945362,M1107091,-,-,2-hydroxy-1-methoxybenzylamine,Koerner,charochkina,A5793,-,-,-,8.89,Log unit,25,?C,NCc1cccc(O)c1OC,10
COC1=C(O)C=CC=C1CN,-,R945363,M1107091,-,-,2-hydroxy-1-methoxybenzylamine,Koerner,charochkina,A5793,-,-,-,10.5,Log unit,25,?C,Oc1cccc(c1OC)CN,3
CNC1=CC=C(O)C=C1,-,R945364,M19698,-,-,4-hydroxy-N-methylaniline,Koerner,charochkina,A5793,-,-,-,5.9,Log unit,25,?C,N(c1ccc(cc1)O)C,4
NC1=CC=C(O)C=C1N(=O)=O,-,R945365,M67173,-,-,4-Hydroxy-2-nitroaniline,Koerner,charochkina,A5793,-,-,-,9,Log unit,25,?C,Oc1ccc(N)c(c1)N(=O)=O,0
NC1=CC(O)=CC=C1N(=O)=O,-,R945366,M1107092,-,-,5-hydroxy-2-nitroaniline,Koerner,charochkina,A5793,-,-,-,-0.55,Log unit,25,?C,N(=O)(=O)c1ccc(O)cc1N,5
NC1=CC(=CC=C1O)S([O-])(=O)=O,-,R945367,M11181,-,-,2-hydroxy-5-sulphoaniline,Koerner,charochkina,A5793,-,-,-,4.121,Log unit,25,?C,Nc1cc(S(=O)(=O)[O-])ccc1O,11
NC1=CC(=CC=C1O)S([O-])(=O)=O,-,R945368,M11181,-,-,2-hydroxy-5-sulphoaniline,Koerner,charochkina,A5793,-,-,-,9.146,Log unit,25,?C,Oc1ccc(S(=O)(=O)[O-])cc1N,8
NC1=CC=CC=C1I,-,R945369,M10934,-,-,2-iodo-aniline,Koerner,charochkina,A5793,-,-,-,2.605,Log unit,25,?C,Nc1c(I)cccc1,7
NC1=CC(I)=CC=C1,-,R945370,M2551,-,-,3-iodo-aniline,Koerner,charochkina,A5793,-,-,-,3.6,Log unit,25,?C,Nc1cc(I)ccc1,7
NC1=CC=C(I)C=C1,-,R945371,M21457,-,-,4-iodo-aniline,Koerner,charochkina,A5793,-,-,-,3.785,Log unit,25,?C,Nc1ccc(I)cc1,5
CSC1=CC=C(N)C(I)=C1,-,R945372,M1107093,-,-,2-iodo-4-methylthioaniline,Koerner,charochkina,A5793,-,-,-,2.45,Log unit,25,?C,Nc1c(I)cc(SC)cc1,9
CSC1=CC=C(N)C=C1I,-,R945373,M1107094,-,-,3-iodo-4-methylthioaniline,Koerner,charochkina,A5793,-,-,-,3.44,Log unit,25,?C,Nc1cc(I)c(SC)cc1,5
NC1=CC(=CC(I)=C1)N(=O)=O,-,R945374,M1107095,-,-,5-iodo-3-nitroaniline,Koerner,charochkina,A5793,-,-,-,1.44,Log unit,25,?C,Nc1cc(I)cc(c1)N(=O)=O,5
CC(C)CN(C)C1=CC=CC=C1,-,R945375,M1107096,-,-,N-isobutyl-N-methylaniline,Koerner,charochkina,A5793,-,-,-,5.2,Log unit,25,?C,N(c1ccccc1)(C)CC(C)C,4
CC(C)NC1=CC=CC=C1,-,R945376,M23587,-,-,N-ISOPROPYLANILINE,Koerner,charochkina,A5793,-,-,-,5.5,Log unit,25,?C,N(c1ccccc1)C(C)C,4
CC(C)C1=CC=CC=C1N,-,R945377,M13594,-,-,2-isopropyl-aniline,Koerner,charochkina,A5793,-,-,-,4.42,Log unit,25,?C,Nc1ccccc1C(C)C,9
CC(C)C1=CC=CC(N)=C1,-,R945378,M145911,-,-,3-isopropyl-aniline,Koerner,charochkina,A5793,-,-,-,4.67,Log unit,25,?C,Nc1cccc(c1)C(C)C,4
CC(C)C1=CC=C(N)C=C1,-,R945379,M6420,-,-,4-Isopropylaniline,Koerner,charochkina,A5793,-,-,-,4.85,Log unit,25,?C,Nc1ccc(cc1)C(C)C,9
CC(C)S(=O)(=O)C1=CC=C(N)C=C1,-,R945380,M1107097,-,-,4-isopropylsulphonylaniline,Koerner,charochkina,A5793,-,-,-,1.4,Log unit,25,?C,Nc1ccc(S(=O)(=O)C(C)C)cc1,10
CC(C)SC1=CC=C(N)C=C1,-,R945381,M1107098,-,-,4-isopropylthioaniline,Koerner,charochkina,A5793,-,-,-,3.89,Log unit,25,?C,Nc1ccc(SC(C)C)cc1,8
NC1=CC=CC=C1S,-,R945382,M19470,-,-,2-mercapto-aniline,Koerner,charochkina,A5793,-,-,-,3,Log unit,25,?C,Nc1c(S)cccc1,7
COC1=CC=CC=C1N,-,R945383,M11807,-,-,2-METHOXY-ANILINE,Koerner,charochkina,A5793,-,-,-,4.56,Log unit,25,?C,Nc1ccccc1OC,8
COC1=CC=CC(N)=C1,-,R945384,M7180,-,-,3-methoxy-aniline,Koerner,charochkina,A5793,-,-,-,4.235,Log unit,25,?C,Nc1cccc(c1)OC,4
COC1=CC=C(N)C=C1,-,R945385,M760,-,-,4-METHOXY-ANILINE,Koerner,charochkina,A5793,-,-,-,5.335,Log unit,25,?C,Nc1ccc(cc1)OC,8
COC(=O)C1=CC=CC=C1N,-,R945386,M19421,-,-,2-methoxycarbonyl-aniline,Koerner,charochkina,A5793,-,-,-,2.23,Log unit,25,?C,Nc1ccccc1C(=O)OC,10
COC(=O)C1=CC=CC(N)=C1,-,R945387,M29445,-,-,3-METHOXYCARBONYLANILINE,Koerner,charochkina,A5793,-,-,-,3.495,Log unit,25,?C,Nc1cccc(C(=O)OC)c1,10
COC(=O)C1=CC=C(N)C=C1,-,R945388,M6596,-,-,4-METHOXYCARBONYLANILINE,Koerner,charochkina,A5793,-,-,-,2.435,Log unit,25,?C,Nc1ccc(cc1)C(=O)OC,10
COC(=O)C1=CC=CC=C1N(C)C,-,R945389,M79656,-,-,"2-methoxycarbonyl-N,N-dimethylaniline",Koerner,charochkina,A5793,-,-,-,3.78,Log unit,25,?C,N(c1ccccc1C(=O)OC)(C)C,10
COC(=O)C1=CC=CC(=C1)N(C)C,-,R945390,M1107099,-,-,"3-methoxycarbonyl-N,N-dimethylaniline",Koerner,charochkina,A5793,-,-,-,3.86,Log unit,25,?C,N(c1cccc(c1)C(=O)OC)(C)C,4
COC(=O)C1=CC=C(C=C1)N(C)C,-,R945391,M68938,-,-,"4-methoxycarbonyl-N,N-dimethylaniline",Koerner,charochkina,A5793,-,-,-,2.52,Log unit,25,?C,N(c1ccc(cc1)C(=O)OC)(C)C,10
CNC1=CC=CC=C1C(=O)OC,-,R945392,M17795,-,-,2-methoxycarbonyl-N-methylaniline,Koerner,charochkina,A5793,-,-,-,3.53,Log unit,25,?C,N(c1ccccc1C(=O)OC)C,10
CNC1=CC=C(C=C1)C(=O)OC,-,R945393,M6244,-,-,4-methoxycarbonyl-N-methylaniline,Koerner,charochkina,A5793,-,-,-,2.32,Log unit,25,?C,N(c1ccc(cc1)C(=O)OC)C,10
COC1=CC=C(C=C1)N(C)C,-,R945394,M14387,-,-,"4-Methoxy-N,N-dimethylaniline",Koerner,charochkina,A5793,-,-,-,5.8735,Log unit,25,?C,N(c1ccc(cc1)OC)(C)C,4
COC1=CC(=CC(N)=C1)N(=O)=O,-,R945395,M1107100,-,-,3-methoxy-5-nitroaniline,Koerner,charochkina,A5793,-,-,-,2.11,Log unit,25,?C,N(=O)(=O)c1cc(cc(c1)OC)N,4
COC(=O)C1=C(C)C=C(N)C=C1,-,R945396,M1107101,-,-,4-methoxycarbonyl-3-methylaniline,Koerner,charochkina,A5793,-,-,-,2.73,Log unit,25,?C,Nc1ccc(c(C)c1)C(=O)OC,11
COC(=O)C1=CC(=C(N)C=C1)N(=O)=O,-,R945397,M1107102,-,-,4-methoxycarbonyl-2-nitroaniline,Koerner,charochkina,A5793,-,-,-,-2.59,Log unit,25,?C,Nc1ccc(cc1N(=O)=O)C(=O)OC,9
COC1=C(N)C=C(C=C1)N(=O)=O,-,R945398,M18291,-,-,2-METHOXY-5-NITROANILINE,Koerner,charochkina,A5793,-,-,-,2.49,Log unit,25,?C,N(=O)(=O)c1ccc(OC)c(c1)N,4
COC1=CC(=C(N)C=C1)N(=O)=O,-,R945399,M18193,-,-,4-Methoxy-2-nitroaniline,Koerner,charochkina,A5793,-,-,-,0.75,Log unit,25,?C,Nc1ccc(cc1N(=O)=O)OC,7
COC1=C(C=C(N)C=C1)N(=O)=O,-,R945400,M111060,-,-,4-Methoxy-3-nitroaniline,Koerner,charochkina,A5793,-,-,-,3.36,Log unit,25,?C,N(=O)(=O)c1c(ccc(c1)N)OC,6
COC1=CC(N)=C(C=C1)N(=O)=O,-,R945401,M33770,-,-,5-methoxy-2-nitroaniline,Koerner,charochkina,A5793,-,-,-,-0.72,Log unit,25,?C,Nc1c(ccc(c1)OC)N(=O)=O,4
CNC1=CC=CC=C1,-,R945402,M107,-,-,N-Methylaniline,Koerner,charochkina,A5793,-,-,-,4.844,Log unit,25,?C,N(c1ccccc1)C,4
CC1=CC=CC=C1N,-,R945403,M9899,-,-,2-methylaniline,Koerner,charochkina,A5793,-,-,-,4.445,Log unit,25,?C,Nc1ccccc1C,7
CC1=CC=CC(N)=C1,-,R945404,M5064,-,-,3-methyl-aniline,Koerner,charochkina,A5793,-,-,-,4.695,Log unit,25,?C,Nc1cccc(c1)C,4
CC1=CC=C(N)C=C1,-,R945405,M10196,-,-,4-methyl-aniline,Koerner,charochkina,A5793,-,-,-,5.09,Log unit,25,?C,Nc1ccc(cc1)C,7
CC1=CC(=C(N)C(=C1)N(=O)=O)N(=O)=O,-,R945406,M31212,-,-,"4-Methyl-2,6-dinitroaniline",Koerner,charochkina,A5793,-,-,-,-4.505,Log unit,25,?C,N(=O)(=O)c1cc(cc(c1N)N(=O)=O)C,4
CC1=C(C=CC(N)=C1)N(=O)=O,-,R945407,M22405,-,-,3-methyl-4-nitro-aniline,Koerner,charochkina,A5793,-,-,-,1.57,Log unit,25,?C,N(=O)(=O)c1ccc(cc1C)N,5
CC1=C(C=C(N)C=C1)N(=O)=O,-,R945408,M19007,-,-,4-methyl-3-nitro-aniline,Koerner,charochkina,A5793,-,-,-,2.995,Log unit,25,?C,N(=O)(=O)c1c(ccc(c1)N)C,5
CC1=C(N)C=CC(=C1)N(=O)=O,-,R945409,M13231,-,-,2-methyl-4-nitroaniline,Koerner,charochkina,A5793,-,-,-,1.04,Log unit,25,?C,N(=O)(=O)c1ccc(c(c1)C)N,4
CC1=C(N)C=C(C=C1)N(=O)=O,-,R945410,M18289,-,-,2-Methyl-5-nitroaniline,Koerner,charochkina,A5793,-,-,-,2.32,Log unit,25,?C,N(=O)(=O)c1ccc(c(c1)N)C,4
CC1=CC(=CC(N)=C1)N(=O)=O,-,R945411,M1107103,-,-,3-methyl-5-nitroaniline,Koerner,charochkina,A5793,-,-,-,2.38,Log unit,25,?C,N(=O)(=O)c1cc(cc(c1)C)N,4
CC1=CC(=C(N)C=C1)N(=O)=O,-,R945412,M2070,-,-,4-methyl-2-nitroaniline,Koerner,charochkina,A5793,-,-,-,0.3965,Log unit,25,?C,Nc1ccc(cc1N(=O)=O)C,3
CC1=CC(N)=C(C=C1)N(=O)=O,-,R945413,M66997,-,-,5-Methyl-2-nitroaniline,Koerner,charochkina,A5793,-,-,-,-0.09,Log unit,25,?C,Nc1c(ccc(c1)C)N(=O)=O,4
CC1=C(N)C(=CC=C1)N(=O)=O,-,R945414,M21833,-,-,6-Methyl-2-nitroaniline,Koerner,charochkina,A5793,-,-,-,-0.71,Log unit,25,?C,Nc1c(cccc1N(=O)=O)C,4
CCCN(C)C1=CC=CC=C1,-,R945415,M1107104,-,-,N-methyl-N-n-propylaniline,Koerner,charochkina,A5793,-,-,-,5.67,Log unit,25,?C,N(c1ccccc1)(C)CCC,4
CS(=O)(=O)C1=CC=CC=C1N,-,R945416,M1107105,-,-,2-methylsulphonylaniline,Koerner,charochkina,A5793,-,-,-,0.33,Log unit,25,?C,Nc1c(S(=O)(=O)C)cccc1,10
CS(=O)(=O)C1=CC=CC(N)=C1,-,R945417,M124457,-,-,3-methylsulphonylaniline,Koerner,charochkina,A5793,-,-,-,2.5705,Log unit,25,?C,Nc1cc(S(=O)(=O)C)ccc1,10
CS(=O)(=O)C1=CC=C(N)C=C1,-,R945418,M30395,-,-,4-methylsuphonylaniline,Koerner,charochkina,A5793,-,-,-,1.357,Log unit,25,?C,Nc1ccc(S(=O)(=O)C)cc1,8
CSC1=CC=CC=C1N,-,R945419,M12142,-,-,2-methylthioaniline,Koerner,charochkina,A5793,-,-,-,3.45,Log unit,25,?C,Nc1c(SC)cccc1,8
CSC1=CC=CC(N)=C1,-,R945420,M5460,-,-,3-methylthioaniline,Koerner,charochkina,A5793,-,-,-,4,Log unit,25,?C,Nc1cc(SC)ccc1,8
CSC1=CC=C(N)C=C1,-,R945421,M18516,-,-,4-METHYLTHIOANILINE,Koerner,charochkina,A5793,-,-,-,4.35,Log unit,25,?C,Nc1ccc(SC)cc1,6
CSC1=CC(=C(N)C(=C1)N(=O)=O)N(=O)=O,-,R945422,M1107106,-,-,"4-methylthio-2,6-dinitroaniline",Koerner,charochkina,A5793,-,-,-,-4.46,Log unit,25,?C,Nc1c(cc(SC)cc1N(=O)=O)N(=O)=O,6
CSC1=CC=C(N)C(=C1)N(=O)=O,-,R945423,M1107107,-,-,4-methylthio-2-nitroaniline,Koerner,charochkina,A5793,-,-,-,-0.28,Log unit,25,?C,Nc1ccc(SC)cc1N(=O)=O,6
CSC1=CC=C(N)C=C1N(=O)=O,-,R945424,M1107108,-,-,4-methylthio-3-nitroaniline,Koerner,charochkina,A5793,-,-,-,2.47,Log unit,25,?C,Nc1ccc(SC)c(c1)N(=O)=O,6
CC1=C(C=C(C(N)=C1N(=O)=O)N(=O)=O)N(=O)=O,-,R945425,M123978,-,-,"3-methyl-2,4,6-trinitroaniline",Koerner,charochkina,A5793,-,-,-,-8.08,Log unit,25,?C,Nc1c(cc(c(c1N(=O)=O)C)N(=O)=O)N(=O)=O,3
CNC1=CC=C(Cl)C=C1N(=O)=O,-,R945225,M1107061,-,-,4-chloro-N-methyl-2-nitroaniline,Koerner,charochkina,A5793,-,-,-,-1.205,Log unit,25,?C,N(c1ccc(Cl)cc1N(=O)=O)C,5
NC1=CC=C(Cl)C=C1N(=O)=O,-,R945226,M17920,-,-,4-chloro-2-nitro-aniline,Koerner,charochkina,A5793,-,-,-,-1.06,Log unit,25,?C,Nc1ccc(Cl)cc1N(=O)=O,5
NC1=CC=C(Cl)C(=C1)N(=O)=O,-,R945227,M23037,-,-,4-chloro-3-nitro-aniline,Koerner,charochkina,A5793,-,-,-,1.9,Log unit,25,?C,Nc1ccc(Cl)c(c1)N(=O)=O,5
NC1=CC(Cl)=CC=C1N(=O)=O,-,R945228,M14023,-,-,5-chloro-2-nitro-aniline,Koerner,charochkina,A5793,-,-,-,-1.52,Log unit,25,?C,N(=O)(=O)c1ccc(Cl)cc1N,5
NC1=CC=CC=C1C#N,-,R945229,M3889,-,-,2-cyano-aniline,Koerner,charochkina,A5793,-,-,-,0.95,Log unit,25,?C,Nc1ccccc1C#N,8
NC1=CC(=CC=C1)C#N,-,R945230,M7374,-,-,3-cyano-aniline,Koerner,charochkina,A5793,-,-,-,2.754,Log unit,25,?C,Nc1cccc(c1)C#N,4
NC1=CC=C(C=C1)C#N,-,R945231,M13398,-,-,4-cyano-aniline,Koerner,charochkina,A5793,-,-,-,1.7445,Log unit,25,?C,Nc1ccc(cc1)C#N,8
CN(C)C1=CC=CC(=C1)C#N,-,R945232,M1107062,-,-,"3-cyano-n,n-dimethylaniline",Koerner,charochkina,A5793,-,-,-,2.969,Log unit,25,?C,N(c1cccc(c1)C#N)(C)C,8
CN(C)C1=CC=C(C=C1)C#N,-,R945233,M24882,-,-,"4-Cyano-N,N-dimethylaniline",Koerner,charochkina,A5793,-,-,-,1.777,Log unit,25,?C,N(c1ccc(cc1)C#N)(C)C,4
NC1=CC(=CC(=C1)N(=O)=O)C#N,-,R945234,M1107063,-,-,5-cyano-3-nitroaniline,Koerner,charochkina,A5793,-,-,-,0.46,Log unit,25,?C,N(=O)(=O)c1cc(cc(c1)C#N)N,4
C1CCC(CC1)NC1=CC=CC=C1,-,R945235,M25812,-,-,N-Cyclohexylaniline,Koerner,charochkina,A5793,-,-,-,5.6,Log unit,25,?C,N(c1ccccc1)C1CCCCC1,4
CN(C1CCCCC1)C1=CC=CC=C1,-,R945236,M1107064,-,-,N-cyclohexyl-N-methylaniline,Koerner,charochkina,A5793,-,-,-,6.35,Log unit,25,?C,N(c1ccccc1)(C)C1CCCCC1,4
CC1=CC=CC=C1NC1CCCCC1,-,R945237,M1107065,-,-,N-cyclohexyl-2-methylaniline,Koerner,charochkina,A5793,-,-,-,5.34,Log unit,25,?C,N(c1ccccc1C)C1CCCCC1,4
C1CCC(C1)NC1=CC=CC=C1,-,R945238,M1107066,-,-,N-cyclopentylaniline,Koerner,charochkina,A5793,-,-,-,5.3,Log unit,25,?C,N(c1ccccc1)C1CCCC1,4
CN(C1CCCC1)C1=CC=CC=C1,-,R945239,M1107067,-,-,N-cyclopentyl-N-methylaniline,Koerner,charochkina,A5793,-,-,-,6.71,Log unit,25,?C,N(c1ccccc1)(C)C1CCCC1,4
CC1=CC=CC=C1NC1CCCC1,-,R945240,M1107068,-,-,N-cyclopentyl-2-methylaniline,Koerner,charochkina,A5793,-,-,-,5.07,Log unit,25,?C,N(c1ccccc1C)C1CCCC1,4
NC1=C(O)C([NH3+])=C(O)C([NH3+])=C1,-,R945241,M1107069,-,-,"3,5-diamino-2,4-dihydroxy-aniline",Koerner,charochkina,A5793,-,-,-,1.2,Log unit,25,?C,Nc1c(O)c(c(c(c1)[NH2+])O)[NH2+],6
NC1=CC(N)=C(O)C(N)=C1,-,R945242,M31156,-,-,"3,5-diamino-2-hydroxy-aniline",Koerner,charochkina,A5793,-,-,-,10.5,Log unit,25,?C,Oc1c(cc(cc1N)N)N,9
NC1=CC([NH3+])=CC(N)=C1O,-,R945243,M31156,-,-,"3,5-diamino-2-hydroxy-aniline",Koerner,charochkina,A5793,-,-,-,2.8,Log unit,25,?C,Nc1c(O)c(N)cc([NH2+])c1,1
NC1=C(O)C([NH3+])=CC([NH3+])=C1,-,R945244,M31156,-,-,"3,5-diamino-2-hydroxy-aniline",Koerner,charochkina,A5793,-,-,-,1.3,Log unit,25,?C,Nc1c(O)c([NH2+])cc([NH2+])c1,1
NC1=C(Br)C=C(Br)C=C1,-,R945245,M22510,-,-,"2,4-dibromo-aniline",Koerner,charochkina,A5793,-,-,-,2.3,Log unit,25,?C,Nc1c(cc(Br)cc1)Br,6
NC1=CC(Br)=CC=C1Br,-,R945246,M73204,-,-,"2,5-Dibromoaniline",Koerner,charochkina,A5793,-,-,-,1.44,Log unit,25,?C,Nc1cc(Br)ccc1Br,8
NC1=C(Br)C=CC=C1Br,-,R945247,M12960,-,-,"2,6-dibromo-aniline",Koerner,charochkina,A5793,-,-,-,0.365,Log unit,25,?C,Nc1c(Br)cccc1Br,8
NC1=CC(Br)=CC(Br)=C1,-,R945248,M124452,-,-,"3,5-dibromo-aniline",Koerner,charochkina,A5793,-,-,-,2.36,Log unit,25,?C,Nc1cc(Br)cc(Br)c1,8
NC1=CC(Br)=C(O)C(Br)=C1,-,R945249,M3783,-,-,"3,5-dibromo-4-hydroxy-aniline",Koerner,charochkina,A5793,-,-,-,3.2,Log unit,25,?C,Nc1cc(Br)c(O)c(c1)Br,5
COC1=C(Br)C=C(N)C=C1Br,-,R945250,M1107070,-,-,"3,5-dibromo-4-methoxy-aniline",Koerner,charochkina,A5793,-,-,-,2.98,Log unit,25,?C,Nc1cc(Br)c(c(c1)Br)OC,5
CC1=CC(Br)=C(N)C(Br)=C1,-,R945251,M78049,-,-,"2,6-dibromo-4-methyl-aniline",Koerner,charochkina,A5793,-,-,-,0.69,Log unit,25,?C,Nc1c(Br)cc(cc1Br)C,9
CC1=C(Br)C=C(N)C=C1Br,-,R945252,M1107071,-,-,"3,5-dibromo-4-methyl-aniline",Koerner,charochkina,A5793,-,-,-,2.87,Log unit,25,?C,Nc1cc(Br)c(c(c1)Br)C,5
NC1=C(Br)C=C(Br)C=C1N(=O)=O,-,R945253,M7780,-,-,"2,4-Dibromo-6-nitroaniline",Koerner,charochkina,A5793,-,-,-,-2.98,Log unit,25,?C,Nc1c(cc(Br)cc1N(=O)=O)Br,6
CCCCOC1=CC(N)=C(OCCCC)C=C1,-,R945254,M65761,-,-,"2,5-di-n-butoxyaniline",Koerner,charochkina,A5793,-,-,-,3.96,Log unit,25,?C,Nc1c(ccc(c1)OCCCC)OCCCC,4
CCCCN(CCCC)C1=CC=CC=C1,-,R945255,M22452,-,-,"N,N-di-n-Butylaniline",Koerner,charochkina,A5793,-,-,-,6.3,Log unit,25,?C,N(c1ccccc1)(CCCC)CCCC,4
CC(C)(C)C1=CC(=CC(N)=C1)C(C)(C)C,-,R945256,M6804,-,-,"3,5-di-t-butyl-aniline",Koerner,charochkina,A5793,-,-,-,4.97,Log unit,25,?C,Nc1cc(cc(c1)C(C)(C)C)C(C)(C)C,8
CC(C)C1=C(C(=CC(N)=C1)C(C)(C)C)N(=O)=O,-,R945257,M1107072,-,-,"3,5-di-t-butyl-4-nitro-aniline",Koerner,charochkina,A5793,-,-,-,2.93,Log unit,25,?C,Nc1cc(c(c(c1)C(C)(C)C)N(=O)=O)C(C)C,8
NC1=CC=C(Cl)C=C1Cl,-,R945258,M5772,-,-,"2,4-dichloro-aniline",Koerner,charochkina,A5793,-,-,-,2.025,Log unit,25,?C,Nc1ccc(Cl)cc1Cl,5
NC1=CC(Cl)=CC=C1Cl,-,R945259,M527,-,-,"2,5-dichloro-aniline",Koerner,charochkina,A5793,-,-,-,1.57,Log unit,25,?C,Nc1cc(Cl)ccc1Cl,8
NC1=CC=C(Cl)C(Cl)=C1,-,R945260,M10286,-,-,"3,4-dichloro-aniline",Koerner,charochkina,A5793,-,-,-,2.985,Log unit,25,?C,Nc1ccc(Cl)c(Cl)c1,5
NC1=CC(Cl)=CC(Cl)=C1,-,R945261,M11294,-,-,"3,5-dichloro-aniline",Koerner,charochkina,A5793,-,-,-,2.375,Log unit,25,?C,Nc1cc(Cl)cc(Cl)c1,8