"SMILES","CASRN","RECORDID","MOLECULEID","EXTERNALID","N","NAME","NAME","INTRODUCER","MODIFIER","ARTICLEID","PUBMEDID","PAGE","TABLE","pKa (smiles as ob. cond.) {measured}","UNIT {pKa (smiles as ob. cond.)}","pKa (smiles as ob. cond.) {measured, converted}","UNIT {pKa (smiles as ob. cond.)}","Ionizable centre (smiles)","IC group detected","AtomNR of IC","groupsAndICs","IC smiles given","IC group given","Temperature","UNIT {Temperature}","MultiGroupDetection","COMMENTS","INCHI_KEY"
"SC1C[NH2+]C2CCCCC2C1","-","R946528","M1107314","-","-","3-mercaptoquinoline","-","Koerner","charochkina","A5793","-","-","-","2.3","Log unit","2.3","Log unit","SC1[CH][NH2+]C2[CH][CH][CH][CH]C2[CH]1","0","","{sh=[0]}","S-c(c[n+1]c1cc2)cc1cc2","sh","25.0","?C","","-","UEHXURWLODTIKV-UHFFFAOYSA"
"SC1CC[NH2+]C2CCCCC12","-","R946529","M1107315","-","-","4-mercaptoquinoline","-","Koerner","charochkina","A5793","-","-","-","0.77","Log unit","0.77","Log unit","SC1[CH][CH][NH2+]C2C1[CH][CH][CH][CH]2","0","","{sh=[0]}","S-c(cc[n+1]1)c(ccc2)c1c2","sh","25.0","?C","","-","FYDBKEGPBNHLPJ-UHFFFAOYSA"
"[S-]C1=CC=NC2=C1C=CC=C2","-","R946530","M1106918","-","-","4-mercaptoquinoline","-","Koerner","charochkina","A5793","-","-","-","8.87","Log unit","8.87","Log unit","n1ccc([S-])c2ccccc12","4","","{n=[4]}","[S-1]-c(ccn1)c(ccc2)c1c2","n","25.0","?C","","-","ROYCCMJSURLMLI-UHFFFAOYSA"
"[S-]C1=CC=CC2=C1C=CC=N2","-","R946531","M1106919","-","-","5-mercaptoquinoline","-","Koerner","charochkina","A5793","-","-","-","6.52","Log unit","6.52","Log unit","n1c2c(c([S-])ccc2)ccc1","10","","{n=[10]}","[S-1]-c(ccc1)c(ccc2)c1n2","n","25.0","?C","","-","XAXWWYIMGUQNMY-UHFFFAOYSA"
"SC1CCC2[NH2+]CCCC2C1","-","R946532","M1107316","-","-","6-mercaptoquinoline","-","Koerner","charochkina","A5793","-","-","-","3.91","Log unit","3.91","Log unit","SC1[CH][CH]C2[NH2+][CH][CH][CH]C2[CH]1","0","","{sh=[0]}","S-c(ccc1[n+1]c2)cc1cc2","sh","25.0","?C","","-","AEBYUDDZFMURNQ-UHFFFAOYSA"
"[S-]C1=CC=C2N=CC=CC2=C1","-","R946533","M1106920","-","-","6-mercaptoquinoline","-","Koerner","charochkina","A5793","-","-","-","6.5","Log unit","6.5","Log unit","n1c2ccc([S-])cc2ccc1","5","","{n=[5]}","[S-1]-c(ccc1nc2)cc1cc2","n","25.0","?C","","-","WKTZMPNNJIPTON-UHFFFAOYSA"
"SC1CCCC2CCC[NH2+]C12","-","R946534","M1107317","-","-","8-Mercaptoquinoline","-","Koerner","charochkina","A5793","-","-","-","2.015","Log unit","2.015","Log unit","SC1[CH][CH][CH]C2C1[NH2+][CH][CH][CH]2","0","","{sh=[0]}","S-c(ccc1)c([n+1]cc2)c1c2","sh","25.0","?C","","-","ILISKTAKPHDQAD-UHFFFAOYSA"
"[S-]C1=CC=CC2=C1N=CC=C2","-","R946535","M1106921","-","-","8-Mercaptoquinoline","-","Koerner","charochkina","A5793","-","-","-","8.33","Log unit","8.33","Log unit","n1c2c([S-])cccc2ccc1","6","","{n=[6]}","[S-1]-c(ccc1)c(ncc2)c1c2","n","25.0","?C","","-","MHTSJSRDFXZFHQ-UHFFFAOYSA"
"CC1CC(S)C2[NH2+]CCC(C)C2C1","-","R946536","M1107318","-","-","8-mercapto-4,6-dimethylquinoline","-","Koerner","charochkina","A5793","-","-","-","2.3","Log unit","2.3","Log unit","SC1[CH]C([CH]C2C1[NH2+][CH][CH]C2C)C","0","","{sh=[0]}","S-c(cc(c1)C)c([n+1]cc2)c1c2C","sh","25.0","?C","","-","XUSWZAXWUGBSNA-UHFFFAOYSA"
"CC1=CC2=C(N=CC=C2C)C([S-])=C1","-","R946537","M1106922","-","-","8-mercapto-4,6-dimethylquinoline","-","Koerner","charochkina","A5793","-","-","-","9.3","Log unit","9.3","Log unit","n1c2c([S-])cc(cc2c(cc1)C)C","7","","{n=[7]}","[S-1]-c(cc(c1)C)c(ncc2)c1c2C","n","25.0","?C","","-","SQCCWZAQUSWRBP-UHFFFAOYSA"
"CC1CCC2CCCC(S)C2[NH2+]1","-","R946538","M1107319","-","-","8-mercapto-2-methylquinoline","-","Koerner","charochkina","A5793","-","-","-","2.28","Log unit","2.28","Log unit","SC1[CH][CH][CH]C2C1[NH2+]C([CH][CH]2)C","0","","{sh=[0]}","S-c(ccc1)c([n+1]c(c2)C)c1c2","sh","25.0","?C","","-","ZFUKHKQCTHCTLJ-UHFFFAOYSA"
"CC1CC[NH2+]C2C(S)CCCC12","-","R946539","M1107320","-","-","8-mercapto-4-methylquinoline","-","Koerner","charochkina","A5793","-","-","-","2.07","Log unit","2.07","Log unit","SC1[CH][CH][CH]C2C1[NH2+][CH][CH]C2C","0","","{sh=[0]}","S-c(ccc1)c([n+1]cc2)c1c2C","sh","25.0","?C","","-","OVOSJRHQOQVGQF-UHFFFAOYSA"
"CC1=CC=NC2=C1C=CC=C2[S-]","-","R946540","M1106923","-","-","8-mercapto-4-methylquinoline","-","Koerner","charochkina","A5793","-","-","-","9.1","Log unit","9.1","Log unit","n1c2c([S-])cccc2c(cc1)C","6","","{n=[6]}","[S-1]-c(ccc1)c(ncc2)c1c2C","n","25.0","?C","","-","JVQFOBRPSFFLJP-UHFFFAOYSA"
"CC1CC(S)C2[NH2+]CCCC2C1","-","R946541","M1107321","-","-","8-mercapto-6-methylquinoline","-","Koerner","charochkina","A5793","-","-","-","2.11","Log unit","2.11","Log unit","SC1[CH]C([CH]C2C1[NH2+][CH][CH][CH]2)C","0","","{sh=[0]}","S-c(cc(c1)C)c([n+1]cc2)c1c2","sh","25.0","?C","","-","UTIUHEUYHBUGLV-UHFFFAOYSA"
"CC1=CC2=C(N=CC=C2)C([S-])=C1","-","R946542","M1106924","-","-","8-mercapto-6-methylquinoline","-","Koerner","charochkina","A5793","-","-","-","8.49","Log unit","8.49","Log unit","n1c2c([S-])cc(cc2ccc1)C","7","","{n=[7]}","[S-1]-c(cc(c1)C)c(ncc2)c1c2","n","25.0","?C","","-","IQQAHBLSCRCHCB-UHFFFAOYSA"
"CC1CCC2CCC[NH2+]C2C1S","-","R946543","M1107322","-","-","8-mercapto-7-methylquinoline","-","Koerner","charochkina","A5793","-","-","-","2.25","Log unit","2.25","Log unit","SC1C([CH][CH]C2C1[NH2+][CH][CH][CH]2)C","0","","{sh=[0]}","S-c(c(cc1)C)c([n+1]cc2)c1c2","sh","25.0","?C","","-","BPQQQWFBQGWVJP-UHFFFAOYSA"
"CC1=C([S-])C2=C(C=CC=N2)C=C1","-","R946544","M1106925","-","-","8-mercapto-7-methylquinoline","-","Koerner","charochkina","A5793","-","-","-","9.27","Log unit","9.27","Log unit","n1c2c([S-])c(ccc2ccc1)C","7","","{n=[7]}","[S-1]-c(c(cc1)C)c(ncc2)c1c2","n","25.0","?C","","-","IPYLULDKWAHESO-UHFFFAOYSA"
"SC1CCCC2CCC([NH2+]C12)C1=CC=CC=C1","-","R946545","M1107323","-","-","8-mercapto-2-phenylquinoline","-","Koerner","charochkina","A5793","-","-","-","1.28","Log unit","1.28","Log unit","SC1[CH][CH][CH]C2C1[NH2+]C([CH][CH]2)c1ccccc1","0","","{sh=[0]}","S-c(ccc1)c([n+1]c(c2)-c(ccc3)cc3)c1c2","sh","25.0","?C","","-","BJOPEIGMHNQBDF-UHFFFAOYSA"
"[S-]C1=CC=CC2=C1N=C(C=C2)C1=CC=CC=C1","-","R946546","M1106926","-","-","8-mercapto-2-phenylquinoline","-","Koerner","charochkina","A5793","-","-","-","7.87","Log unit","7.87","Log unit","n1c2c([S-])cccc2ccc1c1ccccc1","6","","{n=[6]}","[S-1]-c(ccc1)c(nc(c2)-c(ccc3)cc3)c1c2","n","25.0","?C","","-","JFEMPPJKKBHYRI-UHFFFAOYSA"
"[O-]S(=O)(=O)C1CCC(S)C2[NH2+]CCCC12","-","R946547","M1107324","-","-","8-mercapto-5-sulphoquinoline","-","Koerner","charochkina","A5793","-","-","-","0.92","Log unit","0.92","Log unit","SC1[CH][CH]C(S(=O)(=O)[O-])C2C1[NH2+][CH][CH][CH]2","0","","{sh=[0]}","S-c(ccc1S(=O)(=O)[O-1])c([n+1]cc2)c1c2","sh","25.0","?C","","-","PUZMVYJPPYREMI-UHFFFAOYSA"
"[O-]S(=O)(=O)C1=CC=C([S-])C2=C1C=CC=N2","-","R946548","M1106927","-","-","8-mercapto-5-sulphoquinoline","-","Koerner","charochkina","A5793","-","-","-","7.63","Log unit","7.63","Log unit","n1c2c([S-])ccc(S(=O)(=O)[O-])c2ccc1","10","","{n=[10]}","[S-1]-c(ccc1S(=O)(=O)[O-1])c(ncc2)c1c2","n","25.0","?C","","-","PQQNQBAMHUJCEV-UHFFFAOYSA"
"CC1CCC2C([NH2+]1)C(O)C(CC2S([O-])(=O)=O)N(=O)=O","-","R946549","M1107325","-","-","2-methyl-8-hydroxy-7-nitro-5-sulphoquinoline","-","Koerner","charochkina","A5793","-","-","-","0.7","Log unit","0.7","Log unit","OC1C([CH]C(S(=O)(=O)[O-])C2[CH][CH]C(C)[NH2+]C12)N(=O)=O","8","","{nr2=[9], oh=[8]}","S(=O)(=O)([O-1])-c(cc(c1O)N(=O)=O)c(ccc2C)c1[n+1]2","oh","25.0","?C","","-","PYHCUTFHLFMOJQ-UHFFFAOYSA"
"CC1=NC2=C(C=C1)C(=CC(=C2[O-])N(=O)=O)S([O-])(=O)=O","-","R946550","M1106928","-","-","2-methyl-8-hydroxy-7-nitro-5-sulphoquinoline","-","Koerner","charochkina","A5793","-","-","-","6.24","Log unit","6.24","Log unit","n1c2c(c(S(=O)(=O)[O-])cc(c2[O-])N(=O)=O)ccc1C","18","","{n=[18], nr2=[9]}","S(=O)(=O)([O-1])-c(cc(c1[O-1])N(=O)=O)c(ccc2C)c1n2","n","25.0","?C","","-","FHBCLVFWCVCWLG-UHFFFAOYSA"
"COC1=NC2=CC=CC=C2C=C1","-","R946551","M418985","-","-","2-methoxyquinoline","-","Koerner","charochkina","A5793","-","-","-","3.16","Log unit","3.16","Log unit","n1c2ccccc2ccc1OC","8","","{n=[8]}","c(ccc1cc2)cc1nc2OC","n","25.0","?C","","-","ZTQNUTNKGQGWCM-UHFFFAOYSA"
"COC1=CC=NC2=C1C=CC=C2","-","R946552","M22333","-","-","4-Methoxyquinoline","-","Koerner","charochkina","A5793","-","-","-","6.45","Log unit","6.45","Log unit","n1ccc(OC)c2c1cccc2","0","","{n=[0]}","n(ccc1OC)c(ccc2)c1c2","n","25.0","?C","","-","RWTCJCUERNMVEZ-UHFFFAOYSA"
"COC1=CC2=C(C=C1)N=CC=C2","-","R946553","M3764","-","-","6-Methoxyquinoline","-","Koerner","charochkina","A5793","-","-","-","5.03","Log unit","5.03","Log unit","n1cccc2c1ccc(OC)c2","0","","{n=[0]}","n(ccc1)c(ccc2OC)c1c2","n","25.0","?C","","-","HFDLDPJYCIEXJP-UHFFFAOYSA"
"COC1=CC=CC2=C1N=CC=C2","-","R946554","M14195","-","-","8-Methoxyquinoline","-","Koerner","charochkina","A5793","-","-","-","5.0","Log unit","5.0","Log unit","n1cccc2c1c(ccc2)OC","0","","{n=[0]}","n(ccc1)c(c(cc2)OC)c1c2","n","25.0","?C","","-","ZLKGGEBOALGXJZ-UHFFFAOYSA"
"COC1=CC=CC2=C1N=C(C)C=C2","-","R946555","M728393","-","-","8-methoxy-2-methylquinoline","-","Koerner","charochkina","A5793","-","-","-","5.7","Log unit","5.7","Log unit","n1c(ccc2c1c(ccc2)OC)C","0","","{n=[0]}","n(c(cc1)C)c(c(cc2)OC)c1c2","n","25.0","?C","","-","OQXVXPBDSJQYRR-UHFFFAOYSA"
"COC(=O)C1=NC2=CC=CC=C2C=C1","-","R946556","M142630","-","-","2-methoxycarbonylquinoline","-","Koerner","charochkina","A5793","-","-","-","1.7545","Log unit","1.7545","Log unit","n1c2ccccc2ccc1C(=O)OC","8","","{n=[8]}","c(ccc1cc2)cc1nc2C(=O)OC","n","25.0","?C","","-","CILJSZLWPHTUIP-UHFFFAOYSA"
"COC(=O)C1=CC2=C(C=C1)N=CC=C2","-","R946557","M110466","-","-","6-methoxycarbonylquinoline","-","Koerner","charochkina","A5793","-","-","-","3.8","Log unit","3.8","Log unit","n1cccc2c1ccc(C(=O)OC)c2","0","","{n=[0]}","n(ccc1)c(ccc2C(=O)OC)c1c2","n","25.0","?C","","-","XSRWQTDEIOHXSL-UHFFFAOYSA"
"CC1=NC2=C(C=CC=C2)C=C1","-","R946558","M10488","-","-","2-METHYLQUINOLINE","-","Koerner","charochkina","A5793","-","-","-","5.7","Log unit","5.7","Log unit","n1c(ccc2c1cccc2)C","0","","{n=[0]}","n(c(cc1)C)c(ccc2)c1c2","n","25.0","?C","","-","SMUQFGGVLNAIOZ-UHFFFAOYSA"
"CC1=CC2=C(C=CC=C2)N=C1","-","R946559","M22441","-","-","3-METHYLQUINOLINE","-","Koerner","charochkina","A5793","-","-","-","5.155","Log unit","5.155","Log unit","n1cc(cc2c1cccc2)C","0","","{n=[0]}","n(cc(c1)C)c(ccc2)c1c2","n","25.0","?C","","-","DTBDAFLSBDGPEA-UHFFFAOYSA"
"CC1=CC=NC2=C1C=CC=C2","-","R946560","M20828","-","-","4-METHYLQUINOLINE","-","Koerner","charochkina","A5793","-","-","-","5.63","Log unit","5.63","Log unit","n1ccc(C)c2c1cccc2","0","","{n=[0]}","n(ccc1C)c(ccc2)c1c2","n","25.0","?C","","-","MUDSDYNRBDKLGK-UHFFFAOYSA"
"CC1=CC=CC2=C1C=CC=N2","-","R946561","M32128","-","-","5-Methylquinoline","-","Koerner","charochkina","A5793","-","-","-","4.91","Log unit","4.91","Log unit","n1cccc2c1cccc2C","0","","{n=[0]}","n(ccc1)c(ccc2)c1c2C","n","25.0","?C","","-","LMYVCXSKCQSIEQ-UHFFFAOYSA"
"CC1=CC2=C(C=C1)N=CC=C2","-","R946562","M6494","-","-","6-Methylquinoline","-","Koerner","charochkina","A5793","-","-","-","5.185","Log unit","5.185","Log unit","n1cccc2c1ccc(C)c2","0","","{n=[0]}","n(ccc1)c(ccc2C)c1c2","n","25.0","?C","","-","LUYISICIYVKBTA-UHFFFAOYSA"
"CC1=CC2=C(C=CC=N2)C=C1","-","R946563","M5503","-","-","7-methylquinoline","-","Koerner","charochkina","A5793","-","-","-","5.315","Log unit","5.315","Log unit","n1cccc2c1cc(cc2)C","0","","{n=[0]}","n(ccc1)c(cc(c2)C)c1c2","n","25.0","?C","","-","KDYVCOSVYOSHOL-UHFFFAOYSA"
"CC1=CC=CC2=C1N=CC=C2","-","R946564","M5225","-","-","8-Methylquinoline","-","Koerner","charochkina","A5793","-","-","-","4.98","Log unit","4.98","Log unit","n1cccc2c1c(ccc2)C","0","","{n=[0]}","n(ccc1)c(c(cc2)C)c1c2","n","25.0","?C","","-","JRLTTZUODKEYDH-UHFFFAOYSA"
"ON=CC1=CC=NC2=C1C=CC=C2","-","R946565","M1106929","-","-","4-aldoximequinoline","-","Koerner","charochkina","A5793","-","-","-","4.52","Log unit","4.52","Log unit","n1ccc(C=NO)c2ccccc12","0","","{neth=[4], n=[0], oh=[6]}","n1ccc(C=NO)c2ccccc12","n","25.0","?C","","-","ALQUTEKNDPODSS-UHFFFAOYSA"
"CSC1=CC=CC2=C1N=C(C)C=C2","-","R946566","M1106930","-","-","2-methyl-8-methylthioquinoline","-","Koerner","charochkina","A5793","-","-","-","4.08","Log unit","4.08","Log unit","n1c2c(SC)cccc2ccc1C","7","","{n=[7]}","S(C)-c(ccc1)c(nc(c2)C)c1c2","n","25.0","?C","","-","VTUPHGBSDSMEEB-UHFFFAOYSA"
"NC1=CC(N)=C(O)C2=C1C=CC=N2","-","R946567","M399336","-","-","5,7-diamino-8-hydroxyquinoline","-","Koerner","charochkina","A5793","-","-","-","6.96","Log unit","6.96","Log unit","n1cccc2c1c(O)c(cc2N)N","0","","{n=[0], nr2=[9, 12], oh=[6]}","n(ccc1)c(c(O)c(c2)N)c1c2N","n","25.0","?C","","-","LZKZQHIHBPJQIL-UHFFFAOYSA"
"NC1=CC(N)=C(O)C2=C1C=CC=N2","-","R946568","M399336","-","-","5,7-diamino-8-hydroxyquinoline","-","Koerner","charochkina","A5793","-","-","-","10.83","Log unit","10.83","Log unit","Oc1c2ncccc2c(cc1N)N","6","","{n=[0], nr2=[9, 12], oh=[6]}","n(ccc1)c(c(O)c(c2)N)c1c2N","oh","25.0","?C","","-","LZKZQHIHBPJQIL-UHFFFAOYSA"
"CC1=NC(C)=C2C=CC=CC2=N1","-","R946569","M1106931","-","-","2,4-dimethylquinazoline","-","Koerner","charochkina","A5793","-","-","-","3.58","Log unit","3.58","Log unit","n1c(nc2ccccc2c1C)C","0","","{n=[0, 2]}","n(c(nc1cc2)C)c(c1cc2)C","n","25.0","?C","true","-","VDYFFXPVIBDLOT-UHFFFAOYSA"
"OC1=CC=CC2=NC=NC=C12","-","R946570","M1107326","-","-","5-hydroxyquinazoline","-","Koerner","charochkina","A5793","-","-","-","7.41","Log unit","7.41","Log unit","Oc1c2cncnc2ccc1","10","","{n=[0, 2], oh=[10]}","n(cnc1cc2)cc1c(c2)O","oh","25.0","?C","","-","ATQUABCIJINPMX-UHFFFAOYSA"
"OC1=CC2=CN=CN=C2C=C1","-","R946571","M1107327","-","-","6-hydroxyquinazoline","-","Koerner","charochkina","A5793","-","-","-","8.21","Log unit","8.21","Log unit","Oc1cc2cncnc2cc1","10","","{n=[0, 2], oh=[10]}","n(cnc1cc2)cc1cc2O","oh","25.0","?C","","-","BBPMVEXRMOAIKQ-UHFFFAOYSA"
"OC1=CC2=NC=NC=C2C=C1","-","R946572","M1107328","-","-","7-hydroxyquinazoline","-","Koerner","charochkina","A5793","-","-","-","7.39","Log unit","7.39","Log unit","Oc1cc2ncncc2cc1","6","","{n=[0, 2], oh=[6]}","n(cnc1cc2O)cc1cc2","oh","25.0","?C","","-","BWDCBBZUYJDNJZ-UHFFFAOYSA"
"OC1=CC=CC2=CN=CN=C12","-","R946573","M32068","-","-","8-Hydroxyquinazoline","-","Koerner","charochkina","A5793","-","-","-","8.67","Log unit","8.67","Log unit","Oc1c2ncncc2ccc1","6","","{n=[0, 2], oh=[6]}","n(cnc1c(c2)O)cc1cc2","oh","25.0","?C","","-","LNNRQIKKDKDFRV-UHFFFAOYSA"
"CC1=NC(C)=C2C=CC=C(O)C2=N1","-","R946574","M1106932","-","-","8-hydroxy-2,4-dimethylquinazoline","-","Koerner","charochkina","A5793","-","-","-","3.79","Log unit","3.79","Log unit","n1c(nc2c(cccc2c1C)O)C","0","","{n=[0, 2], oh=[6]}","n(c(nc1c(c2)O)C)c(C)c1cc2","n","25.0","?C","true","-","ZYDQRZNJOOTARG-UHFFFAOYSA"
"CC1=NC(C)=C2C=CC=C(O)C2=N1","-","R946575","M1106932","-","-","8-hydroxy-2,4-dimethylquinazoline","-","Koerner","charochkina","A5793","-","-","-","9.41","Log unit","9.41","Log unit","Oc1c2nc(nc(C)c2ccc1)C","6","","{n=[0, 2], oh=[6]}","n(c(nc1c(c2)O)C)c(C)c1cc2","oh","25.0","?C","","-","ZYDQRZNJOOTARG-UHFFFAOYSA"
"CC1=C2C=CC=C(O)C2=NC=N1","-","R946576","M46729","-","-","8-hydroxy-4-methylquinazoline","-","Koerner","charochkina","A5793","-","-","-","8.7","Log unit","8.7","Log unit","Oc1c2ncnc(C)c2ccc1","6","","{n=[0, 2], oh=[6]}","n(cnc1c(c2)O)c(C)c1cc2","oh","25.0","?C","","-","RSHKEEMIDCYLTC-UHFFFAOYSA"
"C1=CC2=C(C=C1)N=CC=N2","-","R946577","M13197","-","-","Quinoxaline","-","Koerner","charochkina","A5793","-","-","-","0.4","Log unit","0.4","Log unit","n1ccnc2ccccc12","0","","{n=[0, 3]}","n1ccnc2ccccc12","n","25.0","?C","true","-","XSCHRSMBECNVNS-UHFFFAOYSA"
"COC1=NC2=C(C=CC=C2)N=C1OC","-","R946578","M1106935","-","-","2,3-dimethoxyquinoxaline","-","Koerner","charochkina","A5793","-","-","-","-0.85","Log unit","-0.85","Log unit","n1c(OC)c(OC)nc2ccccc12","0","","{n=[0, 7]}","n1c(OC)c(OC)nc2ccccc12","n","25.0","?C","true","-","CRAYFGFTLBTRRS-UHFFFAOYSA"
"OC1=CC=CC2=C1N=CC=N2","-","R946579","M34059","-","-","5-hydroxyquinoxaline","-","Koerner","charochkina","A5793","-","-","-","0.9","Log unit","0.9","Log unit","n1ccnc2c(O)cccc12","0","","{n=[0, 3], oh=[6]}","n1ccnc2c(O)cccc12","n","25.0","?C","true","-","ZUQDDQFXSNXEOD-UHFFFAOYSA"
"OC1=CC=CC2=C1N=CC=N2","-","R946580","M34059","-","-","5-hydroxyquinoxaline","-","Koerner","charochkina","A5793","-","-","-","8.68","Log unit","8.68","Log unit","Oc1c2nccnc2ccc1","6","","{n=[0, 3], oh=[6]}","n1ccnc2c(O)cccc12","oh","25.0","?C","","-","ZUQDDQFXSNXEOD-UHFFFAOYSA"
"OC1=CC2=C(C=C1)N=CC=N2","-","R946581","M1107329","-","-","6-hydroxyquinoxaline","-","Koerner","charochkina","A5793","-","-","-","7.94","Log unit","7.94","Log unit","Oc1cc2nccnc2cc1","7","","{n=[0, 3], oh=[7]}","n1ccnc2cc(O)ccc12","oh","25.0","?C","","-","RQPVXTQTNVVKEJ-UHFFFAOYSA"
"CCC1=C2C=CC=CC2=NC=N1","-","R946582","M1106936","-","-","4-ethylquinazoline","-","Koerner","charochkina","A5793","-","-","-","2.895","Log unit","2.895","Log unit","n1cnc2ccccc2c1CC","0","","{n=[0, 2]}","n(cnc1cc2)c(c1cc2)CC","n","25.0","?C","true","-","IUQMWGWDJZHCOD-UHFFFAOYSA"
"CCSC1=CC2=C(C=C1)C=NC=N2","-","R946583","M1106937","-","-","7-ethylthioquinazoline","-","Koerner","charochkina","A5793","-","-","-","3.11","Log unit","3.11","Log unit","n1c2cc(SCC)ccc2cnc1","6","","{n=[6, 8]}","S(CC)-c(cc(ncn1)c2c1)cc2","n","25.0","?C","true","-","VTPHBSDUTXOHKG-UHFFFAOYSA"
"CC(C)C1=NC=NC2=CC=CC=C12","-","R946584","M1106938","-","-","4-isopropylquinazoline","-","Koerner","charochkina","A5793","-","-","-","2.885","Log unit","2.885","Log unit","n1c(c2ccccc2nc1)C(C)C","5","","{n=[5, 11]}","c(ccc1c(n2)C(C)C)cc1nc2","n","25.0","?C","true","-","HCIQBMMADFSPDG-UHFFFAOYSA"
"COC1=C(C)C2=C(C=C1)C=NC=N2","-","R946585","M1106939","-","-","7-methoxy-8-methylquinazoline","-","Koerner","charochkina","A5793","-","-","-","3.78","Log unit","3.78","Log unit","n1cncc2c1c(c(cc2)OC)C","0","","{n=[0, 2]}","n(cnc1)c(c(c(c2)OC)C)c1c2","n","25.0","?C","true","-","YJWJTUMQQXPBMZ-UHFFFAOYSA"
"C1=CC2=C(C=NC=N2)N=C1","-","R946586","M1106940","-","-","1,3,5-triazanaphthalene","-","Koerner","charochkina","A5793","-","-","-","1.36","Log unit","1.36","Log unit","n1cncc2c1cccn2","0","","{n=[0, 2, 9]}","n(cnc1)c(ccc2)c1n2","n","25.0","?C","true","-","BWESROVQGZSBRX-UHFFFAOYSA"
"C1=CC2=C(C=N1)N=CN=C2","-","R946587","M1106941","-","-","1,3,7-triazanaphthalene","-","Koerner","charochkina","A5793","-","-","-","1.81","Log unit","1.81","Log unit","n1cncc2c1cncc2","0","","{n=[0, 2, 6]}","n(cnc1)c(cnc2)c1c2","n","25.0","?C","true","-","PAQYIEZTLSDLQO-UHFFFAOYSA"
"C1=CC2=C(N=C1)N=CN=C2","-","R946588","M1106942","-","-","1,3,8-triazanaphthalene","-","Koerner","charochkina","A5793","-","-","-","1.0","Log unit","1.0","Log unit","n1cncc2c1nccc2","0","","{n=[0, 2, 5]}","n(cnc1)c(ncc2)c1c2","n","25.0","?C","true","-","UDJFFSGCRRMVFH-UHFFFAOYSA"
"CC1=NC2=C(C=CN=C2)N=C1","-","R946589","M1106943","-","-","3-methyl-1,4,6-triazanaphthalene","-","Koerner","charochkina","A5793","-","-","-","3.315","Log unit","3.315","Log unit","n1cc(nc2c1ccnc2)C","0","","{n=[0, 3, 8]}","n(cc(n1)C)c(ccn2)c1c2","n","25.0","?C","true","-","HJFAGCYGDRKURZ-UHFFFAOYSA"
"C1=CC2=CC3=CC=CC=C3N=C2C=C1","-","R946590","M2399","-","-","acridine","-","Koerner","charochkina","A5793","-","-","-","5.15","Log unit","5.15","Log unit","n1c2ccccc2cc2c1cccc2","4","","{n=[4]}","c(ccc1nc2cc3)cc1cc2cc3","n","25.0","?C","","-","DZBUGLKDJFMEHC-UHFFFAOYSA"
"NC1=CC=CC2=NC3=CC=CC=C3C=C12","-","R946591","M6324","-","-","1-aminoacridine","-","Koerner","charochkina","A5793","-","-","-","6.0","Log unit","6.0","Log unit","n1c2ccccc2cc2c1cccc2N","4","","{n=[4], nr2=[14]}","c(ccc1nc2cc3)cc1cc2c(c3)N","n","25.0","?C","","-","LOMMDWBTANPFEJ-UHFFFAOYSA"
"NC1=CC2=CC3=CC=CC=C3N=C2C=C1","-","R946592","M11366","-","-","2-aminoacridine","-","Koerner","charochkina","A5793","-","-","-","5.84","Log unit","5.84","Log unit","n1c2ccccc2cc2c1ccc(c2)N","4","","{n=[4], nr2=[14]}","c(ccc1nc2cc3)cc1cc2cc3N","n","25.0","?C","","-","UTXPWBKKZFLMPZ-UHFFFAOYSA"