"SMILES","CASRN","RECORDID","MOLECULEID","EXTERNALID","N","NAME","NAME","INTRODUCER","MODIFIER","ARTICLEID","PUBMEDID","PAGE","TABLE","pKa (smiles as ob. cond.) {measured}","UNIT {pKa (smiles as ob. cond.)}","pKa (smiles as ob. cond.) {measured, converted}","UNIT {pKa (smiles as ob. cond.)}","Ionizable centre (smiles)","IC group detected","AtomNR of IC","groupsAndICs","IC smiles given","IC group given","Temperature","UNIT {Temperature}","MultiGroupDetection","COMMENTS","INCHI_KEY"
"CC1=CC=C(CN)C=C1","-","R945570","M3935","-","-","4-methyl-benzylamine","-","Koerner","charochkina","A5793","-","-","-","9.45","Log unit","9.45","Log unit","NCc1ccc(cc1)C","5","","{nr2=[5]}","c(cc(c1)CN)c(c1)C","nr2","25.0","?C","","-","HMTSWYPNXFHGEP-UHFFFAOYSA"
"NCC1=CC=C2OCOC2=C1","-","R945571","M71603","-","-","3,4-Methylenedioxybenzylamine","-","Koerner","charochkina","A5793","-","-","-","9.37","Log unit","9.37","Log unit","NCc1ccc2OCOc2c1","8","","{nr2=[8]}","O(CO1)c(ccc2CN)c1c2","nr2","25.0","?C","","-","ZILSBZLQGRBMOR-UHFFFAOYSA"
"NCC1=CC(=CC=C1)N(=O)=O","-","R945572","M124084","-","-","3-nitrobenzlyamine","-","Koerner","charochkina","A5793","-","-","-","8.585","Log unit","8.585","Log unit","NCc1cccc(c1)N(=O)=O","5","","{nr2=[5, 8]}","c(cc(c1)CN)cc1N(=O)=O","nr2","25.0","?C","true","-","CIUYJYRQKYGNQP-UHFFFAOYSA"
"NCC1=CC=C(C=C1)N(=O)=O","-","R945573","M31919","-","-","4-Nitrobenzylamine","-","Koerner","charochkina","A5793","-","-","-","8.505","Log unit","8.505","Log unit","N(=O)(=O)c1ccc(cc1)CN","4","","{nr2=[4, 10]}","c(cc(c1)N(=O)=O)c(c1)CN","nr2","25.0","?C","true","-","ODVBBZFQPGORMJ-UHFFFAOYSA"
"NCC1=C(F)C(F)=C(F)C(F)=C1F","-","R945574","M1107145","-","-","2,3,4,5,6-pentafluorobenzylamine","-","Koerner","charochkina","A5793","-","-","-","7.67","Log unit","7.67","Log unit","NCc1c(c(c(F)c(F)c1F)F)F","8","","{nr2=[8]}","F-c(c(F)c(F)c1CN)c(F)c1F","nr2","25.0","?C","","-","BHRRPEQUXZLXBW-UHFFFAOYSA"
"CCCNCC1=CC=CC=C1","-","R945575","M70567","-","-","N-Propylbenzylamine","-","Koerner","charochkina","A5793","-","-","-","9.58","Log unit","9.58","Log unit","N(Cc1ccccc1)CCC","5","","{nr2=[5]}","c(ccc1CNCCC)cc1","nr2","25.0","?C","","-","OUMBFMLKPJUWDQ-UHFFFAOYSA"
"NC1=CC=CC=C1C1=CC=CC=C1","-","R945576","M10827","-","-","2-Aminobiphenyl","-","Koerner","charochkina","A5793","-","-","-","3.825","Log unit","3.825","Log unit","Nc1c(c2ccccc2)cccc1","10","","{nr2=[10]}","c(ccc1-c(ccc2)c(c2)N)cc1","nr2","25.0","?C","","-","TWBPWBPGNQWFSJ-UHFFFAOYSA"
"NC1=CC(=CC=C1)C1=CC=CC=C1","-","R945577","M120343","-","-","3-AMINOBIPHENYL","-","Koerner","charochkina","A5793","-","-","-","4.25","Log unit","4.25","Log unit","Nc1cc(c2ccccc2)ccc1","10","","{nr2=[10]}","c(ccc1-c(ccc2)cc2N)cc1","nr2","25.0","?C","","-","MUNOBADFTHUUFG-UHFFFAOYSA"
"NC1=CC=C(C=C1)C1=CC=CC=C1","-","R945578","M2097","-","-","4-Aminobiphenyl","-","Koerner","charochkina","A5793","-","-","-","4.285","Log unit","4.285","Log unit","Nc1ccc(c2ccccc2)cc1","8","","{nr2=[8]}","c(ccc1-c(ccc2N)cc2)cc1","nr2","25.0","?C","","-","DMVOXQPQNTYEKQ-UHFFFAOYSA"
"COC1=CC=C(C=C1)C1=CC=C(N)C=C1","-","R945579","M1107146","-","-","4-amino-4'-methoxybiphenyl","-","Koerner","charochkina","A5793","-","-","-","4.25","Log unit","4.25","Log unit","Nc1ccc(cc1)c1ccc(OC)cc1","14","","{nr2=[14]}","c(cc(c1)-c(ccc2OC)cc2)c(c1)N","nr2","25.0","?C","","-","WGURSKWDHNBQAD-UHFFFAOYSA"
"NC1=CC=C(C=C1)C1=CC=C(C=C1)N(=O)=O","-","R945580","M120140","-","-","4-amino-4'-nitropiphenyl","-","Koerner","charochkina","A5793","-","-","-","3.765","Log unit","3.765","Log unit","N(=O)(=O)c1ccc(c2ccc(cc2)N)cc1","8","","{nr2=[8, 15]}","c(cc(c1)-c(ccc2N(=O)=O)cc2)c(c1)N","nr2","25.0","?C","true","-","BOFVBIYTBGDQGY-UHFFFAOYSA"
"NC1=CC=C(C=C1)C1=CC=C(N)C=C1","-","R945581","M3760","-","-","4,4'-Diaminobiphenyl","-","Koerner","charochkina","A5793","-","-","-","5.02","Log unit","5.02","Log unit","Nc1ccc(c2ccc(cc2)N)cc1","8","","{nr2=[8, 13]}","c(cc(c1)c(ccc2N)cc2)c(c1)N","nr2","25.0","?C","true","-","HFACYLZERDEVSX-UHFFFAOYSA"
"CC1=CC=C(N)C2=CC=CC(C)=C12","-","R945582","M1107147","-","-","1-amino-4,5-dimethylnapthalene","-","Koerner","charochkina","A5793","-","-","-","4.42","Log unit","4.42","Log unit","Nc1c2cccc(C)c2c(cc1)C","12","","{nr2=[12]}","c(cc(C)c1c(c2)C)cc1c(c2)N","nr2","25.0","?C","","-","NKALDNSJPZWINP-UHFFFAOYSA"
"CC1=CC(N)=CC2=CC=CC(C)=C12","-","R945583","M1107148","-","-","2-amino-4,5-dimethylnaphthalene","-","Koerner","charochkina","A5793","-","-","-","4.27","Log unit","4.27","Log unit","Nc1cc2cccc(C)c2c(c1)C","12","","{nr2=[12]}","c(cc(C)c1c(c2)C)cc1cc2N","nr2","25.0","?C","","-","HCVFSDXBOOGHFF-UHFFFAOYSA"
"CC1=CC=CC(N)=C1C1=C(N)C=CC=C1C","-","R945584","M1107149","-","-","2,2'-diamino-6,6'-dimethylbiphenyl","-","Koerner","charochkina","A5793","-","-","-","3.7","Log unit","3.7","Log unit","Nc1cccc(c1c1c(cccc1C)N)C","3","","{nr2=[3, 9]}","c(cc(N)c1-c(c(cc2)N)c(c2)C)cc1C","nr2","25.0","?C","true","-","MCUUKQCKNKUMBP-UHFFFAOYSA"
"CC1=CC=C(N)C=C1C1=C(C)C=CC(N)=C1","-","R945585","M1107150","-","-","3,3'-diamino-6,6'-dimethylbiphenyl","-","Koerner","charochkina","A5793","-","-","-","5.0","Log unit","5.0","Log unit","Nc1cc(c2c(ccc(c2)N)C)c(cc1)C","9","","{nr2=[9, 15]}","c(cc(C)c1-c(cc(c2)N)c(c2)C)c(c1)N","nr2","25.0","?C","true","-","FENHXLUKSWNISV-UHFFFAOYSA"
"CC1=CC(N)=CC=C1C1=C(C)C=C(N)C=C1","-","R945586","M64974","-","-","4,4'-Diamino-2,2'-dimethylbiphenyl","-","Koerner","charochkina","A5793","-","-","-","4.9","Log unit","4.9","Log unit","Nc1ccc(c2ccc(cc2C)N)c(c1)C","9","","{nr2=[9, 15]}","c(cc(c1C)-c(ccc2N)c(c2)C)c(c1)N","nr2","25.0","?C","true","-","QYIMZXITLDTULQ-UHFFFAOYSA"
"CC1=CC(=CC=C1N)C1=CC(C)=C(N)C=C1","-","R945587","M19027","-","-","4,4'-Diamino-3,3'-dimethylbiphenyl","-","Koerner","charochkina","A5793","-","-","-","4.5","Log unit","4.5","Log unit","Nc1ccc(c2ccc(c(c2)C)N)cc1C","8","","{nr2=[8, 15]}","c(cc(c1)-c(ccc2N)cc2C)c(c1C)N","nr2","25.0","?C","true","-","NUIURNJTPRWVAP-UHFFFAOYSA"
"CN(C)C1=CC=C(C=C1)C(O)C1=CC=C(C=C1)N(C)C","-","R945588","M19015","-","-","4,4'-bisdimethylaminodiphenylcarbinol","-","Koerner","charochkina","A5793","-","-","-","5.31","Log unit","5.31","Log unit","N(c1ccc(C(c2ccc(cc2)N(C)C)O)cc1)(C)C","10","","{nr2=[10, 17], oh=[5]}","c(cc(c1)C(O)c(ccc2N(C)C)cc2)c(c1)N(C)C","nr2","25.0","?C","true","-","YLZSIUVOIFJGQZ-UHFFFAOYSA"
"NC1=C2CC3=CC=CC=C3C2=CC=C1","-","R945589","M31169","-","-","1-Aminofluorene","-","Koerner","charochkina","A5793","-","-","-","3.77","Log unit","3.77","Log unit","Nc1c2c(c3ccccc3C2)ccc1","13","","{nr2=[13]}","c(ccc1C2)cc1c(ccc3)c2c3N","nr2","25.0","?C","","-","CYSPWCARDHRYJX-UHFFFAOYSA"
"NC1=CC=C2C(CC3=CC=CC=C23)=C1","-","R945590","M1315","-","-","2-Aminofluorene","-","Koerner","charochkina","A5793","-","-","-","4.53","Log unit","4.53","Log unit","Nc1ccc2c3ccccc3Cc2c1","11","","{nr2=[11]}","c(ccc1C2)cc1c(ccc3N)c2c3","nr2","25.0","?C","","-","CFRFHWQYWJMEJN-UHFFFAOYSA"
"NC1=CC=C2CC3=CC=CC=C3C2=C1","-","R945591","M120658","-","-","3-Aminofluorene","-","Koerner","charochkina","A5793","-","-","-","4.82","Log unit","4.82","Log unit","Nc1cc2c3ccccc3Cc2cc1","11","","{nr2=[11]}","c(ccc1C2)cc1c(cc(c3)N)c2c3","nr2","25.0","?C","","-","FNGCZPANGGUOPU-UHFFFAOYSA"
"NC1=C2C(CC3=CC=CC=C23)=CC=C1","-","R945592","M120716","-","-","4-Aminofluorene","-","Koerner","charochkina","A5793","-","-","-","3.455","Log unit","3.455","Log unit","Nc1c2c3ccccc3Cc2ccc1","11","","{nr2=[11]}","c(ccc1C2)cc1c(c(cc3)N)c2c3","nr2","25.0","?C","","-","NNHRVRJFHLVIIV-UHFFFAOYSA"
"NC1=CC=C2C(CC3=CC=CC=C23)=C1O","-","R945593","M1107151","-","-","2-amino-1-hydroxyfluorene","-","Koerner","charochkina","A5793","-","-","-","4.82","Log unit","4.82","Log unit","Nc1ccc2c3ccccc3Cc2c1O","11","","{nr2=[11], oh=[14]}","c(ccc1C2)cc1c(ccc3N)c2c3O","nr2","25.0","?C","","-","UTYJWCLETJNCCW-UHFFFAOYSA"
"NC1=CC=C2C(CC3=CC=CC(O)=C23)=C1","-","R945594","M1107152","-","-","2-amino-5-hydroxyfluorene","-","Koerner","charochkina","A5793","-","-","-","4.73","Log unit","4.73","Log unit","Nc1ccc2c3c(cccc3Cc2c1)O","12","","{nr2=[12], oh=[6]}","c(ccc1C2)c(O)c1c(ccc3N)c2c3","nr2","25.0","?C","","-","OUPLPICEGKCWTF-UHFFFAOYSA"
"NC1=CC2=C(C=C1)C1=CC(O)=CC=C1C2","-","R945595","M1107153","-","-","2-amino-6-hydroxyfluorene","-","Koerner","charochkina","A5793","-","-","-","4.63","Log unit","4.63","Log unit","Nc1ccc2c(Cc3c2cc(cc3)O)c1","14","","{nr2=[14], oh=[9]}","c(cc(c1C2)c(cc(c3)O)c2c3)c(c1)N","nr2","25.0","?C","","-","GFRGKMRVVJZULC-UHFFFAOYSA"
"NC1=CC=C2C(CC3=C2C=CC(O)=C3)=C1","-","R945596","M1107154","-","-","2-amino-7-hydroxyfluorene","-","Koerner","charochkina","A5793","-","-","-","4.88","Log unit","4.88","Log unit","Nc1ccc2c3ccc(O)cc3Cc2c1","9","","{nr2=[9], oh=[13]}","c(cc(c1C2)c(ccc3N)c2c3)c(O)c1","nr2","25.0","?C","","-","JNIWZBUNAVIXDB-UHFFFAOYSA"
"NC1CCC2=CC=CC=C12","-","R945597","M85347","-","-","1-Aminoindan","-","Koerner","charochkina","A5793","-","-","-","9.21","Log unit","9.21","Log unit","NC1c2ccccc2CC1","5","","{nr2=[5]}","c(ccc1C2N)cc1CC2","nr2","25.0","?C","","-","XJEVHMGJSYVQBQ-UHFFFAOYSA"
"NC1CC2=CC=CC=C2C1","-","R945598","M72143","-","-","2-Aminoindan","-","Koerner","charochkina","A5793","-","-","-","9.57","Log unit","9.57","Log unit","NC1Cc2ccccc2C1","9","","{nr2=[9]}","c(ccc1C2)cc1CC2N","nr2","25.0","?C","","-","LMHHFZAXSANGGM-UHFFFAOYSA"
"NC1=CC2=C(CCC2)C=C1","-","R945599","M36193","-","-","5-Aminoindan","-","Koerner","charochkina","A5793","-","-","-","5.31","Log unit","5.31","Log unit","Nc1ccc2CCCc2c1","9","","{nr2=[9]}","c(cc(CC1)c2C1)c(c2)N","nr2","25.0","?C","","-","LEWZOBYWGWKNCK-UHFFFAOYSA"
"NC1CC2=CC=CC=C2C1O","-","R945600","M115732","-","-","2-amino-3-hydroxyindan","-","Koerner","charochkina","A5793","-","-","-","8.13","Log unit","8.13","Log unit","NC1Cc2ccccc2C1O","10","","{nr2=[10], oh=[5]}","c(ccc1C2O)cc1CC2N","nr2","25.0","?C","","-","HRWCWYGWEVVDLT-UHFFFAOYSA"
"NC1=CC=CC2=CC=CC=C12","-","R945601","M10056","-","-","1-Aminonaphthalene","-","Koerner","charochkina","A5793","-","-","-","3.94","Log unit","3.94","Log unit","Nc1c2ccccc2ccc1","6","","{nr2=[6]}","c(ccc1c(c2)N)cc1cc2","nr2","25.0","?C","","-","RUFPHBVGCFYCNW-UHFFFAOYSA"
"NC1=CC2=CC=CC=C2C=C1","-","R945602","M4877","-","-","2-amino-naphthalene","-","Koerner","charochkina","A5793","-","-","-","4.15","Log unit","4.15","Log unit","Nc1cc2ccccc2cc1","6","","{nr2=[6]}","c(ccc1cc2N)cc1cc2","nr2","25.0","?C","","-","JBIJLHTVPXGSAM-UHFFFAOYSA"
"NC1=C2C=CC=CC2=CC(Br)=C1","-","R945603","M1107155","-","-","1-amino-3-bromo-naphthalene","-","Koerner","charochkina","A5793","-","-","-","2.67","Log unit","2.67","Log unit","Nc1cc(Br)cc2c1cccc2","4","","{nr2=[4]}","Br-c(cc(N)c1cc2)cc1cc2","nr2","25.0","?C","","-","XBAWEJDBVITLRB-UHFFFAOYSA"
"NC1=CC=C(Br)C2=C1C=CC=C2","-","R945604","M71011","-","-","1-Amino-4-bromonaphthalene","-","Koerner","charochkina","A5793","-","-","-","3.21","Log unit","3.21","Log unit","Nc1ccc(Br)c2ccccc12","5","","{nr2=[5]}","Br-c(ccc1N)c(ccc2)c1c2","nr2","25.0","?C","","-","LIUKLAQDPKYBCP-UHFFFAOYSA"
"NC1=CC2=C(C=CC=C2)C(Br)=C1","-","R945605","M1107156","-","-","2-amino-4-bromo-naphthalene","-","Koerner","charochkina","A5793","-","-","-","3.4","Log unit","3.4","Log unit","Nc1cc(Br)c2ccccc2c1","5","","{nr2=[5]}","Br-c(cc(c1)N)c(ccc2)c1c2","nr2","25.0","?C","","-","SAMHIPLAJNLCLT-UHFFFAOYSA"
"NC1=C2C=CC=CC2=CC(Cl)=C1","-","R945606","M1107157","-","-","1-amino-3-chloronaphthalene","-","Koerner","charochkina","A5793","-","-","-","2.69","Log unit","2.69","Log unit","Nc1cc(Cl)cc2c1cccc2","4","","{nr2=[4]}","Cl-c(cc(N)c1cc2)cc1cc2","nr2","25.0","?C","","-","NLGWROLEWGVGSB-UHFFFAOYSA"
"NC1=CC=CC2=C1C=CC=C2Cl","-","R945607","M1107158","-","-","1-amino-5-chloro-naphthalene","-","Koerner","charochkina","A5793","-","-","-","3.34","Log unit","3.34","Log unit","Nc1c2c(c(Cl)ccc2)ccc1","11","","{nr2=[11]}","Cl-c(ccc1)c(ccc2)c1c2N","nr2","25.0","?C","","-","JRFLIJXBMJNZQP-UHFFFAOYSA"
"NC1=CC=CC2=CC(Cl)=CC=C12","-","R945608","M1107159","-","-","1-amino-6-chloronaphthalene","-","Koerner","charochkina","A5793","-","-","-","3.48","Log unit","3.48","Log unit","Nc1c2ccc(Cl)cc2ccc1","7","","{nr2=[7]}","Cl-c(ccc1c(c2)N)cc1cc2","nr2","25.0","?C","","-","VCARWOLXSNJYKS-UHFFFAOYSA"
"NC1=CC=CC2=CC=C(Cl)C=C12","-","R945609","M1107160","-","-","1-amino-7-chloronaphthalene","-","Koerner","charochkina","A5793","-","-","-","3.48","Log unit","3.48","Log unit","Nc1c2cc(Cl)ccc2ccc1","11","","{nr2=[11]}","Cl-c(ccc1cc2)cc1c(c2)N","nr2","25.0","?C","","-","WKZOHSFHDCWFRP-UHFFFAOYSA"
"NC1=CC2=C(C=CC=C2)C(Cl)=C1","-","R945610","M1107161","-","-","2-amino-4-chloro-naphthalene","-","Koerner","charochkina","A5793","-","-","-","3.38","Log unit","3.38","Log unit","Nc1cc(Cl)c2ccccc2c1","5","","{nr2=[5]}","Cl-c(cc(c1)N)c(ccc2)c1c2","nr2","25.0","?C","","-","MIKONFKVUFZXPJ-UHFFFAOYSA"
"NC1=CC2=CC(Cl)=CC=C2C=C1","-","R945611","M1107162","-","-","2-amino-7-chloro-naphthalene","-","Koerner","charochkina","A5793","-","-","-","3.71","Log unit","3.71","Log unit","Nc1cc2cc(Cl)ccc2cc1","11","","{nr2=[11]}","Cl-c(ccc1cc2)cc1cc2N","nr2","25.0","?C","","-","CXRIRBFSNTZALG-UHFFFAOYSA"
"NC1=CC(=CC2=CC=CC=C12)C#N","-","R945612","M1107163","-","-","1-amino-3-cyanonaphthalene","-","Koerner","charochkina","A5793","-","-","-","2.26","Log unit","2.26","Log unit","Nc1c2ccccc2cc(c1)C#N","6","","{nr2=[6]}","c(ccc1c(c2)N)cc1cc2C#N","nr2","25.0","?C","","-","XCJZOOWUCHTLMX-UHFFFAOYSA"
"NC1=CC2=CC=CC=C2C(=C1)C#N","-","R945613","M1107164","-","-","2-amino-4-cyano-naphthalene","-","Koerner","charochkina","A5793","-","-","-","2.66","Log unit","2.66","Log unit","Nc1cc2ccccc2c(c1)C#N","12","","{nr2=[12]}","c(ccc1c(c2)C#N)cc1cc2N","nr2","25.0","?C","","-","IOSGHNSKXAXCPP-UHFFFAOYSA"
"NC1=CC(O)=C(O)C2=CC=CC=C12","-","R945614","M1107165","-","-","1-amino-3,4-dihydroxynaphthalene","-","Koerner","charochkina","A5793","-","-","-","4.41","Log unit","4.41","Log unit","Nc1c2ccccc2c(O)c(O)c1","12","","{nr2=[12], oh=[5, 7]}","c(ccc1c(O)c2O)cc1c(c2)N","nr2","25.0","?C","","-","BMBCZQQICGADPE-UHFFFAOYSA"
"NC1=CC(O)=C(O)C2=CC=CC=C12","-","R945615","M1107165","-","-","1-amino-3,4-dihydroxynaphthalene","-","Koerner","charochkina","A5793","-","-","-","9.32","Log unit","9.32","Log unit","Oc1c2ccccc2c(cc1O)N","5","","{nr2=[12], oh=[5, 7]}","c(ccc1c(O)c2O)cc1c(c2)N","oh","25.0","?C","true","-","BMBCZQQICGADPE-UHFFFAOYSA"
"NC1=C(O)C2=CC=CC=C2C(O)=C1","-","R945616","M1107166","-","-","2-amino-1,4-dihydroxynaphthalene","-","Koerner","charochkina","A5793","-","-","-","4.04","Log unit","4.04","Log unit","Nc1c(c2ccccc2c(c1)O)O","7","","{nr2=[7], oh=[5, 12]}","c(ccc1c(O)c2N)cc1c(c2)O","nr2","25.0","?C","","-","ZSSKPZAMFNKWIY-UHFFFAOYSA"
"NC1=C(O)C2=CC=CC=C2C([O-])=C1","-","R945617","M1107166","-","-","2-amino-1,4-dihydroxynaphthalene","-","Koerner","charochkina","A5793","-","-","-","11.27","Log unit","11.27","Log unit","Oc1c2ccccc2c(cc1N)[O-]","5","","{nr2=[7], oh=[5]}","c(ccc1c(O)c2N)cc1c(c2)[O-1]","oh","25.0","?C","","-","ZSSKPZAMFNKWIY-UHFFFAOYSA"
"NC1=CC(O)=CC2=CC=CC=C12","-","R945618","M1050442","-","-","1-amino-3-hydroxy-naphthalene","-","Koerner","charochkina","A5793","-","-","-","3.3","Log unit","3.3","Log unit","Nc1c2ccccc2cc(c1)O","6","","{nr2=[6], oh=[11]}","c(ccc1c(c2)N)cc1cc2O","nr2","25.0","?C","","-","HZVWUBNSJFILOV-UHFFFAOYSA"
"NC1=CC=CC2=C(O)C=CC=C12","-","R945620","M64959","-","-","1-Amino-5-hydroxynaphthalene","-","Koerner","charochkina","A5793","-","-","-","3.96","Log unit","3.96","Log unit","Nc1c2cccc(O)c2ccc1","11","","{nr2=[11], oh=[3]}","c(cc(O)c1cc2)cc1c(c2)N","nr2","25.0","?C","","-","ZBIBQNVRTVLOHQ-UHFFFAOYSA"
"NC1=C2C=CC(O)=CC2=CC=C1","-","R945621","M17830","-","-","1-amino-6-hydroxynaphthalene","-","Koerner","charochkina","A5793","-","-","-","3.97","Log unit","3.97","Log unit","Nc1cccc2c1ccc(c2)O","3","","{nr2=[3], oh=[11]}","c(cc(N)c1cc2)cc1cc2O","nr2","25.0","?C","","-","FSBRKZMSECKELY-UHFFFAOYSA"
"NC1=C2C=C(O)C=CC2=CC=C1","-","R945622","M18977","-","-","1-Amino-7-hydroxynaphthalene","-","Koerner","charochkina","A5793","-","-","-","4.2","Log unit","4.2","Log unit","Nc1cccc2c1cc(O)cc2","3","","{nr2=[3], oh=[7]}","c(cc(N)c1cc2O)cc1cc2","nr2","25.0","?C","","-","KVHHMYZBFBSVDI-UHFFFAOYSA"
"NC1=CC2=CC=CC(O)=C2C=C1","-","R945623","M81378","-","-","2-amino-4-hydroxy-naphthalene","-","Koerner","charochkina","A5793","-","-","-","3.45","Log unit","3.45","Log unit","Nc1cc2cccc(O)c2cc1","11","","{nr2=[11], oh=[3]}","c(cc(O)c1cc2)cc1cc2N","nr2","25.0","?C","","-","QYFYIOWLBSPSDM-UHFFFAOYSA"
"NC1=CC2=CC=CC(O)=C2C=C1","-","R945624","M81378","-","-","2-amino-5-hydroxy-naphthalene","-","Koerner","charochkina","A5793","-","-","-","9.84","Log unit","9.84","Log unit","Oc1cccc2c1ccc(c2)N","3","","{nr2=[11], oh=[3]}","c(cc(O)c1cc2)cc1cc2N","oh","25.0","?C","","-","QYFYIOWLBSPSDM-UHFFFAOYSA"
"NC1=CC2=CC=CC(O)=C2C=C1","-","R945625","M81378","-","-","2-amino-5-hydroxy-naphthalene","-","Koerner","charochkina","A5793","-","-","-","4.07","Log unit","4.07","Log unit","Nc1cc2cccc(O)c2cc1","11","","{nr2=[11], oh=[3]}","c(cc(O)c1cc2)cc1cc2N","nr2","25.0","?C","","-","QYFYIOWLBSPSDM-UHFFFAOYSA"
"NC1=CC2=C(C=C1)C=CC(O)=C2","-","R945626","M65141","-","-","2-amino-7-hydroxy-naphthalene","-","Koerner","charochkina","A5793","-","-","-","4.25","Log unit","4.25","Log unit","Nc1cc2cc(ccc2cc1)O","2","","{nr2=[2], oh=[9]}","c1c(N)ccc2ccc(O)cc12","nr2","25.0","?C","","-","WSUYONLKFXZZRV-UHFFFAOYSA"
"NC1=CC(=CC2=CC(=CC(O)=C12)S([O-])(=O)=O)S([O-])(=O)=O","-","R945627","M17938","-","-","1-amino-8-hydroxy-3,6-disulphonaphthalene","-","Koerner","charochkina","A5793","-","-","-","3.627","Log unit","3.627","Log unit","Nc1c2c(cc(S(=O)(=O)[O-])cc2cc(c1)S(=O)(=O)[O-])O","11","","{nr2=[11], oh=[7]}","S(=O)(=O)([O-1])-c(cc(O)c1c(c2)N)cc1cc2S(=O)(=O)[O-1]","nr2","25.0","?C","","-","APRRQJCCBSJQOQ-UHFFFAOYSA"
"NC1=CC=CC=C1N(=O)=O","-","R945426","M2166","-","-","2-nitroaniline","-","Koerner","charochkina","A5793","-","-","-","-0.255","Log unit","-0.255","Log unit","N(=O)(=O)c1ccccc1N","4","","{nr2=[4, 9]}","c(ccc1N(=O)=O)cc1N","nr2","25.0","?C","true","-","DPJCXCZTLWNFOH-UHFFFAOYSA"
"NC1=CC(=CC=C1)N(=O)=O","-","R945427","M12971","-","-","3-NITRO-ANILINE","-","Koerner","charochkina","A5793","-","-","-","2.468","Log unit","2.468","Log unit","Nc1cccc(c1)N(=O)=O","4","","{nr2=[4, 7]}","c(cc(c1)N)cc1N(=O)=O","nr2","25.0","?C","true","-","XJCVRTZCHMZPBD-UHFFFAOYSA"
"NC1=CC=C(C=C1)N(=O)=O","-","R945428","M10872","-","-","4-NITRO-ANILINE","-","Koerner","charochkina","A5793","-","-","-","1.02","Log unit","1.02","Log unit","N(=O)(=O)c1ccc(cc1)N","4","","{nr2=[4, 9]}","c(cc(c1)N(=O)=O)c(c1)N","nr2","25.0","?C","true","-","TYMLOMAKGOJONV-UHFFFAOYSA"
"NC1=CC=C(CC2=CC=C(C=C2)N(=O)=O)C=C1","-","R945429","M1107109","-","-","4-(p-nitro)benzylaniline","-","Koerner","charochkina","A5793","-","-","-","4.45","Log unit","4.45","Log unit","N(=O)(=O)c1ccc(Cc2ccc(cc2)N)cc1","9","","{nr2=[9, 16]}","c(cc(c1)C-c(ccc2N(=O)=O)cc2)c(c1)N","nr2","25.0","?C","true","-","XTAVQWSBKJAURD-UHFFFAOYSA"
"O=N(=O)C1=CC=C(NC2=CC=C(C=C2)N(=O)=O)C=C1","-","R945430","M70254","-","-","4-nitro-N-(4-nitro)phenylaniline","-","Koerner","charochkina","A5793","-","-","-","-6.2","Log unit","-6.2","Log unit","N(=O)(=O)c1ccc(Nc2ccc(N(=O)=O)cc2)cc1","1","","{nr2=[1, 7, 12]}","O=N(=O)c(ccc1Nc(ccc2N(=O)=O)cc2)cc1","nr2","25.0","?C","true","-","MTWHRQTUBOTQTE-UHFFFAOYSA"
"O=N(=O)C1=CC=C(NC2=CC=CC=C2)C=C1","-","R945431","M13321","-","-","N-(4-nitro)phenylaniline","-","Koerner","charochkina","A5793","-","-","-","-2.35","Log unit","-2.35","Log unit","N(c1ccccc1)c1ccc(N(=O)=O)cc1","4","","{nr2=[4, 9]}","c(ccc1Nc(ccc2N(=O)=O)cc2)cc1","nr2","25.0","?C","true","-","XXYMSQQCBUKFHE-UHFFFAOYSA"
"NC1=CC=C(C=C1N(=O)=O)C1=CC=CC=C1","-","R945432","M73738","-","-","2-Nitro-4-phenylaniline","-","Koerner","charochkina","A5793","-","-","-","-0.82","Log unit","-0.82","Log unit","Nc1ccc(c2ccccc2)cc1N(=O)=O","8","","{nr2=[8, 11]}","c(ccc1-c(ccc2N)cc2N(=O)=O)cc1","nr2","25.0","?C","true","-","MQDYZYVWFUIEQU-UHFFFAOYSA"