Smiles,CASRN,Record ID,Molecule ID,External ID,N,Name,Introducer,Modifer,Article ID,PUBMED ID,PAGE,TABLE,pKa,pKa Unit,Temperature,Temperature Unit,Ionizable center smiles,IC group
OC(=O)CCCC(O)=O,-,R932991,M4960,-,-,GLUTARICACID,Koerner,charochkina,A3555,12767145,-,-,3.77,Log unit,,-,OC(=O)CCCC(=O)O,
O=C1CCCC(=O)N1,-,R932992,M5705,-,-,Glutarimide,Koerner,charochkina,A3555,12767145,-,-,11.43,Log unit,,-,N1C(=O)CCCC1=O,
OCC(O)CO,-,R932993,M8486,-,-,glycerol,Koerner,charochkina,A3555,12767145,-,-,14.15,Log unit,,-,OC(CO)CO,
NCC(O)=O,-,R932994,M1956,-,-,GLYCINE1,Koerner,charochkina,A3555,12767145,-,-,2.35,Log unit,,-,OC(=O)CN,
OCC(O)=O,-,R932995,M94,-,-,GLYCOLICACID,Koerner,charochkina,A3555,12767145,-,-,3.83,Log unit,,-,OC(=O)CO,
OC(=O)CCCCCC(O)=O,-,R932996,M12393,-,-,HEPTANEDIOICACID,Koerner,charochkina,A3555,12767145,-,-,4.48,Log unit,,-,OC(=O)CCCCCC(=O)O,
CCCCCCC(O)=O,-,R932997,M6894,-,-,HEPTANOICACID,Koerner,charochkina,A3555,12767145,-,-,4.89,Log unit,,-,OC(=O)CCCCCC,
OC(O)(C(F)(F)F)C(F)(F)F,-,R932998,M67492,-,-,"Hexafluoro-2,2-propanediol",Koerner,charochkina,A3555,12767145,-,-,8.8,Log unit,,-,OC(C(F)(F)F)(C(F)(F)F)O,
OC(C(F)(F)F)C(F)(F)F,-,R932999,M14593,-,-,Hexafluoro-2-propanol,Koerner,charochkina,A3555,12767145,-,-,9.42,Log unit,,-,OC(C(F)(F)F)C(F)(F)F,
N[C@@H](CC1=CN=CN1)C(O)=O,-,R933000,M3940,-,-,HISTIDINE1,Koerner,charochkina,A3555,12767145,-,-,1.8,Log unit,,-,OC(=O)C(N)Cc1[nH]cnc1,
O=C1CNC(=O)N1,-,R933001,M12346,-,-,hydantoin,Koerner,charochkina,A3555,12767145,-,-,9.12,Log unit,,-,N1CC(=O)NC1=O,
OC(=O)NNC(O)=O,-,R933002,M124379,-,-,"HYDRAZINE-N,N'-DIACETICACID",Koerner,charochkina,A3555,12767145,-,-,2.4,Log unit,,-,OC(=O)NNC(=O)O,
OC(=O)CC1=CNC2=CC=CC=C12,-,R933003,M10299,-,-,INDOLE-3-ACETICACID,Koerner,charochkina,A3555,12767145,-,-,4.75,Log unit,,-,OC(=O)Cc1c[nH]c2ccccc12,
OC(=O)CI,-,R933004,M17284,-,-,IODOACETICACID,Koerner,charochkina,A3555,12767145,-,-,3.17,Log unit,,-,OC(=O)CI,
CC[C@H](C)[C@H](N)C(O)=O,-,R933005,M138,-,-,ISOLEUCINE1,Koerner,charochkina,A3555,12767145,-,-,2.32,Log unit,,-,OC(=O)C(N)C(C)CC,
CC(C)C(C(O)=O)C(O)=O,-,R933006,M67109,-,-,ISOPROPYLMALONICACID,Koerner,charochkina,A3555,12767145,-,-,2.94,Log unit,,-,OC(=O)C(C(=O)O)C(C)C,
OC(=O)CN=C=S,-,R933007,M124380,-,-,ISOTHIOCYANATOACETICACID,Koerner,charochkina,A3555,12767145,-,-,6.62,Log unit,,-,OC(=O)CN=C=S,
CC(C)C[C@H](N)C(O)=O,-,R933008,M9909,-,-,LEUCINE1,Koerner,charochkina,A3555,12767145,-,-,2.33,Log unit,,-,OC(=O)C(N)CC(C)C,
NCCCC[C@H](N)C(O)=O,-,R933009,M5499,-,-,LYSINE1,Koerner,charochkina,A3555,12767145,-,-,2.16,Log unit,,-,OC(=O)C(N)CCCCN,
OC(=O)COC1=CC=CC(=C1)C#N,-,R933010,M11445,-,-,M-CYANOPHENOXYACETICACID,Koerner,charochkina,A3555,12767145,-,-,3.03,Log unit,,-,OC(=O)COc1cccc(c1)C#N,
CC1=CC(S)=CC=C1,-,R933011,M18659,-,-,m-Thiocresol,Koerner,charochkina,A3555,12767145,-,-,6.58,Log unit,,-,Sc1cccc(c1)C,Thiophenol
NC(=O)CC(O)=O,-,R933012,M71075,-,-,MALONAMICACID,Koerner,charochkina,A3555,12767145,-,-,3.64,Log unit,,-,OC(=O)CC(=O)N,
OC(=O)CC(O)=O,-,R933013,M7880,-,-,MALONICACID,Koerner,charochkina,A3555,12767145,-,-,2.83,Log unit,,-,OC(=O)CC(=O)O,
N#CCC#N,-,R933014,M18699,-,-,MALONONITRILE,Koerner,charochkina,A3555,12767145,-,-,2.46,Log unit,,-,C(C#N)C#N,
OC(=O)CS,-,R933015,M1693,-,-,MERCAPTOACETICACID,Koerner,charochkina,A3555,12767145,-,-,3.6,Log unit,,-,OC(=O)CS,
OC(=O)CSCC(O)=O,-,R933016,M19180,-,-,MERCAPTODIACETICACID,Koerner,charochkina,A3555,12767145,-,-,3.32,Log unit,,-,OC(=O)CSCC(=O)O,
OC(=O)C[C@@H](S)C(O)=O,-,R933017,M124381,-,-,MERCAPTOSUCCINICACID,Koerner,charochkina,A3555,12767145,-,-,3.3,Log unit,,-,OC(=O)C(CC(=O)O)S,
CC(=C)C(O)=O,-,R933018,M1291,-,-,METHACRYLICACID,Koerner,charochkina,A3555,12767145,-,-,4.66,Log unit,,-,OC(=O)C(=C)C,
CS,-,R933019,M15226,-,-,METHANETHIOL,Koerner,charochkina,A3555,12767145,-,-,10.7,Log unit,,-,SC,
CSCC[C@H](N)C(O)=O,-,R933020,M2553,-,-,METHIONINE1,Koerner,charochkina,A3555,12767145,-,-,2.13,Log unit,,-,OC(=O)C(N)CCSC,
COCC(O)=O,-,R933021,M22787,-,-,METHOXYACETICACID,Koerner,charochkina,A3555,12767145,-,-,3.57,Log unit,,-,OC(=O)COC,
CC(C(O)=O)C(O)=O,-,R933022,M21151,-,-,METHYLMALONICACID,Koerner,charochkina,A3555,12767145,-,-,3.07,Log unit,,-,OC(=O)C(C(=O)O)C,
C[C@@H](CC(O)=O)C(O)=O,-,R933023,M121219,-,-,METHYLSUCCINICACID,Koerner,charochkina,A3555,12767145,-,-,4.13,Log unit,,-,OC(=O)C(CC(=O)O)C,
CS(=O)(=O)CC(O)=O,-,R933024,M124382,-,-,METHYLSULFONYLACETICACID,Koerner,charochkina,A3555,12767145,-,-,2.36,Log unit,,-,OC(=O)CS(=O)(=O)C,
CSCC(O)=O,-,R933025,M71290,-,-,METHYLTHIOACETICACID,Koerner,charochkina,A3555,12767145,-,-,3.72,Log unit,,-,OC(=O)CSC,
CC(=O)NCCS,-,R933026,M24832,-,-,N-ACETYL-2-MERCAPTOETHYLAMINE,Koerner,charochkina,A3555,12767145,-,-,9.92,Log unit,,-,SCCNC(=O)C,
C[C@H](NC(C)=O)C(O)=O,-,R933027,M124383,-,-,N-ACETYL-A-ALANINE,Koerner,charochkina,A3555,12767145,-,-,3.71,Log unit,,-,OC(=O)C(NC(=O)C)C,
CC(=O)NCCC(O)=O,-,R933028,M72241,-,-,N-ACETYL-B-ALANINE,Koerner,charochkina,A3555,12767145,-,-,4.45,Log unit,,-,OC(=O)CCNC(=O)C,
CC(=O)NCC(O)=O,-,R933029,M21526,-,-,N-ACETYLGLYCINE,Koerner,charochkina,A3555,12767145,-,-,3.67,Log unit,,-,OC(=O)CNC(=O)C,
C[C@H](N)C(=O)NCC(O)=O,-,R933030,M124384,-,-,N-ALANYLGLYCINE1,Koerner,charochkina,A3555,12767145,-,-,3.11,Log unit,,-,OC(=O)CNC(=O)C(N)C,
CCCCNCC(O)=O,-,R933031,M124385,-,-,N-BUTYLGLYCINE1,Koerner,charochkina,A3555,12767145,-,-,2.35,Log unit,,-,OC(=O)CNCCCC,
CCNC(=O)CS,-,R933032,M124386,-,-,N-ETHYLMERCAPTOACETAMIDE,Koerner,charochkina,A3555,12767145,-,-,8.14,Log unit,,-,SCC(=O)NCC,
OC(=O)CNC=O,-,R933033,M26971,-,-,N-Formylglycine,Koerner,charochkina,A3555,12767145,-,-,3.43,Log unit,,-,OC(=O)CNC=O,
C[C@H](N)C(=O)N[C@@H](C)C(O)=O,-,R933034,M70446,-,-,N-L-ALANYL-D-ALANINE1,Koerner,charochkina,A3555,12767145,-,-,3.12,Log unit,,-,OC(=O)C(NC(=O)C(N)C)C,
CN(CC(O)=O)CC(O)=O,-,R933035,M74200,-,-,N-METHYLIMINODIACETICACID,Koerner,charochkina,A3555,12767145,-,-,2.15,Log unit,,-,OC(=O)CN(CC(=O)O)C,
OC(=O)CN(=O)=O,-,R933036,M124387,-,-,NITROACETICACID,Koerner,charochkina,A3555,12767145,-,-,1.68,Log unit,,-,OC(=O)CN(=O)=O,
CCN(=O)=O,-,R933037,M6653,-,-,Nitroethane,Koerner,charochkina,A3555,12767145,-,-,8.57,Log unit,,-,C(C)N(=O)=O,
CN(=O)=O,-,R933038,M6559,-,-,Nitromethane,Koerner,charochkina,A3555,12767145,-,-,9.21,Log unit,,-,CN(=O)=O,
CCCCCCCCC(O)=O,-,R933039,M2478,-,-,NONANOICACID,Koerner,charochkina,A3555,12767145,-,-,4.95,Log unit,,-,OC(=O)CCCCCCCC,