Smiles,CASRN,Record ID,Molecule ID,External ID,N,Name,Introducer,Modifer,Article ID,PUBMED ID,PAGE,TABLE,pKa,pKa Unit,Temperature,Temperature Unit,Ionizable center smiles,IC group
NC1=C2N=CN([C@@H]3O[C@H](CO)[C@@H](O)[C@H]3O)C2=NC=N1,-,R1321859,M7964,-,5,Adenosine,Koerner,charochkina,A4065,19961204,-,,12.35,Log unit,,-,OC1C(n2c3c(c(N)ncn3)nc2)OC(C1O)CO,
CCC[S@](=O)C1=CC=C2NC(NC(=O)OC)=NC2=C1,-,R1321860,M663919,-,6,Albendazole sulphoxide,Koerner,charochkina,A4065,19961204,-,-,3.28,Log unit,,-,n1c([nH]c2c1cc(S(=O)CCC)cc2)NC(=O)OC,
CCC[S@](=O)C1=CC=C2NC(NC(=O)OC)=NC2=C1,-,R1321861,M663919,-,6,Albendazole sulphoxide,Koerner,charochkina,A4065,19961204,-,-,9.93,Log unit,,-,[nH]1c(nc2cc(S(=O)CCC)ccc12)NC(=O)OC,
NC1=CC=C(C=C1)C(O)=O,-,R1321862,M273,-,8,4-Aminobenzoic acid,Koerner,charochkina,A4065,19961204,-,-,2.501,Log unit,,-,Nc1ccc(C(=O)O)cc1,
NC1=CC=C(C=C1)C(O)=O,-,R1321863,M273,-,8,4-Aminobenzoic acid,Koerner,charochkina,A4065,19961204,-,-,4.874,Log unit,,-,OC(=O)c1ccc(N)cc1,
CC1(C)S[C@@H]2[C@H](N)C(=O)N2[C@H]1C(O)=O,-,R1321864,M56226,-,9,6-Aminopenicillanic Acid,Koerner,charochkina,A4065,19961204,-,-,2.3,Log unit,,-,OC(=O)C1N2C(C(C2=O)N)SC1(C)C,
CC1(C)S[C@@H]2[C@H](N)C(=O)N2[C@H]1C(O)=O,-,R1321865,M56226,-,9,6-Aminopenicillanic Acid,Koerner,charochkina,A4065,19961204,-,,4.9,Log unit,,-,NC1C(=O)N2C(C(O)=O)C(C)(C)SC21,
CC1(C)S[C@@H]2[C@H](NC(=O)C3(N)CCCC3)C(=O)N2[C@H]1C(O)=O,-,R1321866,M659577,-,666,WY-7953,Koerner,charochkina,A4065,19961204,4,6,2.62,Log unit,,-,OC(=O)C1N2C(=O)C(NC(=O)C3(CCCC3)N)C2SC1(C)C,
CC1(C)S[C@@H]2[C@H](NC(=O)[C@H](N)C3=CC=CC=C3)C(=O)N2[C@H]1C(O)=O,-,R1321867,M516,-,17,Ampicillin,Koerner,charochkina,A4065,19961204,-,-,2.65,Log unit,,-,OC(=O)C1N2C(SC1(C)C)C(C2=O)NC(=O)C(c1ccccc1)N,
CC1(C)S[C@@H]2[C@H](NC(=O)[C@H](N)C3=CC=CC=C3)C(=O)N2[C@H]1C(O)=O,-,R1321868,M516,-,17,Ampicillin,Koerner,charochkina,A4065,19961204,-,-,7.25,Log unit,,-,NC(C(=O)NC1C2N(C1=O)C(C(S2)(C)C)C(=O)O)c1ccccc1,
C[C@@H](OC1=CC=CC=C1)C(=O)N[C@H]1[C@H]2SC(C)(C)[C@@H](N2C1=O)C(O)=O,-,R1321869,M545949,-,666,Phenethicillin,Koerner,charochkina,A4065,19961204,4,6,2.73,Log unit,,-,OC(=O)C1N2C(=O)C(NC(=O)C(Oc3ccccc3)C)C2SC1(C)C,
OC[C@H](O)[C@H]1OC(=O)C(O)=C1O,-,R1321870,M1383,-,23,Ascorbic acid,Koerner,charochkina,A4065,19961204,-,-,4.13,Log unit,,-,OC1=C(C(=O)OC1C(O)CO)O,
OC[C@H](O)[C@H]1OC(=O)C(O)=C1O,-,R1321871,M1383,-,23,Ascorbic acid,Koerner,charochkina,A4065,19961204,-,-,11.39,Log unit,,-,OC1=C(C(C(O)CO)OC1=O)O,
CC(C)NC[C@H](O)COC1=CC=C(CC(N)=O)C=C1,-,R1321872,M6701,-,25,atenolol,Koerner,charochkina,A4065,19961204,-,-,9.58,Log unit,,-,N(CC(COc1ccc(CC(=O)N)cc1)O)C(C)C,
COC(=O)[C@H](CC1=CC=CC=C1)NC(=O)[C@@H](N)CC(O)=O,-,R1321873,M59934,-,26,ASPARTAME,Koerner,charochkina,A4065,19961204,-,-,3.19,Log unit,,-,OC(=O)CC(C(=O)NC(C(=O)OC)Cc1ccccc1)N,
COC(=O)[C@H](CC1=CC=CC=C1)NC(=O)[C@@H](N)CC(O)=O,-,R1321874,M59934,-,26,ASPARTAME,Koerner,charochkina,A4065,19961204,-,-,7.87,Log unit,,-,NC(C(=O)NC(C(=O)OC)Cc1ccccc1)CC(=O)O,
CCC[C@@H](C)C1(CC)C(=O)NC(=O)NC1=O,-,R1321875,M12225,-,666,Barbituric acid,Koerner,charochkina,A4065,19961204,4,5,8.13,Log unit,,-,N1C(=O)C(C(=O)NC1=O)(C(CCC)C)CC,
[O-]C1=C2C=CC=CC2=NC=N1,-,R1207641,M20829,-,-,4-Hydroxyquinazoline,Koerner,charochkina,A5793,-,-,-,9.87,Log unit,25,?C,[O-]c1ncnc2ccccc12,2
OC1=CC2=CN=CN=C2C=C1,-,R1207643,M1107327,-,-,6-hydroxyquinazoline,Koerner,charochkina,A5793,-,-,-,3.1,Log unit,25,?C,n1cnc2ccc(cc2c1)O,3
OC1=CC2=NC=NC=C2C=C1,-,R1207645,M1107328,-,-,7-hydroxyquinazoline,Koerner,charochkina,A5793,-,-,-,3.2,Log unit,25,?C,n1cnc2cc(O)ccc2c1,3
CC1=C2C=CC=C(O)C2=NC=N1,-,R1207650,M46729,-,-,8-hydroxy-4-methylquinazoline,Koerner,charochkina,A5793,-,-,-,2.88,Log unit,25,?C,n1cnc2c(cccc2c1C)O,2
[S-]c1ncc2ccccc2[n+]1,-,R1207652,M1158202,-,-,2-mercaptoquinazoline,Koerner,charochkina,A5793,-,-,-,0.26,Log unit,25,?C,n1c([S-])[n+]c2c(c1)cccc2,n
[S-]C1=NC=C2C=CC=CC2=N1,-,R1207653,M1158203,-,-,2-mercaptoquinazoline,Koerner,charochkina,A5793,-,-,-,8.2,Log unit,25,?C,[S-]c1ncc2ccccc2n1,1
[S-]c1nc[n+]c2ccccc12,-,R1207654,M1158204,-,-,4-Mercaptoquinazoline,Koerner,charochkina,A5793,-,-,-,1.5,Log unit,25,?C,[S-]c1nc[n+]c2c1cccc2,n
[S-]C1=NC=NC2=C1C=CC=C2,-,R1207655,M28117,-,-,4-Mercaptoquinazoline,Koerner,charochkina,A5793,-,-,-,8.47,Log unit,25,?C,[S-]c1ncnc2c1cccc2,2
COC1=NC2=C(C=CC=C2)C=N1,-,R1207656,M1158205,-,-,2-methoxyquinazoline,Koerner,charochkina,A5793,-,-,-,1.455,Log unit,25,?C,n1cc2ccccc2nc1OC,1
COC1=C2C=CC=CC2=NC=N1,-,R1207657,M33836,-,-,4-METHOXYQUINAZOLINE,Koerner,charochkina,A5793,-,-,-,3.07,Log unit,25,?C,n1cnc(OC)c2c1cccc2,1
NC1=NC2=C(C=CC=C2)N=C1,-,R1207659,M30267,-,-,2-AMINOQUINOXALINE,Koerner,charochkina,A5793,-,-,-,3.9,Log unit,25,?C,n1c(N)cnc2ccccc12,4
NC1=CC=CC2=C1N=CC=N2,-,R1207660,M33886,-,-,5-AMINOQUINOXALINE,Koerner,charochkina,A5793,-,-,-,2.6,Log unit,25,?C,n1ccnc2c(N)cccc12,4
NC1=CC2=C(C=C1)N=CC=N2,-,R1207661,M31095,-,-,6-AMINOQUINOXALINE,Koerner,charochkina,A5793,-,-,-,2.9,Log unit,25,?C,n1ccnc2ccc(cc12)N,3
COC1=NC2=C(C=CC=C2)N=C1,-,R1207662,M637,-,-,2-Methoxyquinoxaline,Koerner,charochkina,A5793,-,-,-,0.28,Log unit,25,?C,n1cc(nc2ccccc12)OC,1
CN(C)C1=NC2=C(C=CC=C2)N=C1,-,R1207664,M1158206,-,-,2-dimethylaminoquinoxaline,Koerner,charochkina,A5793,-,-,-,3.69,Log unit,25,?C,n1c(cnc2ccccc12)N(C)C,2
OC1=CC2=C(C=C1)N=CC=N2,-,R1207667,M1107329,-,-,6-hydroxyquinoxaline,Koerner,charochkina,A5793,-,-,-,1.4,Log unit,25,?C,n1ccnc2ccc(cc12)O,2
COC1=NC2=C(C=CC=C2)N=C1C,-,R1207669,M1158207,-,-,2-methoxy-3-methylquinoxaline,Koerner,charochkina,A5793,-,-,-,1.38,Log unit,25,?C,n1c(c(nc2ccccc12)OC)C,1
COC1=NC2=CC=CC=C2N=C1C,-,R1207670,M1158207,-,-,2-methoxy-3-methylquinoxaline,Koerner,charochkina,A5793,-,-,-,1.38,Log unit,25,?C,n1c2ccccc2nc(OC)c1C,1
CC1=NC2=C(C=CC=C2)N=C1,-,R1207671,M255,-,-,2-Methylquinoxaline,Koerner,charochkina,A5793,-,-,-,0.95,Log unit,25,?C,n1c(cnc2ccccc12)C,1
CNC1=NC2=C(C=CC=C2)N=C1,-,R1207672,M1158208,-,-,2-methylaminoquinoxaline,Koerner,charochkina,A5793,-,-,-,4.07,Log unit,25,?C,n1c(cnc2ccccc12)NC,3
CSC1=NC2=C(C=CC=C2)N=C1,-,R1207673,M2790,-,-,2-methylthioquinoxaline,Koerner,charochkina,A5793,-,-,-,0.275,Log unit,25,?C,n1cc(SC)nc2ccccc12,2
CCSC1=CC2=C(C=C1)C=NC=N2,-,R1207675,M1106937,-,-,7-ethylthioquinazoline,Koerner,charochkina,A5793,-,-,-,3.11,Log unit,25,?C,n1cnc2cc(SCC)ccc2c1,n
COC1=C(C)C2=C(C=C1)C=NC=N2,-,R1207677,M1106939,-,-,7-methoxy-8-methylquinazoline,Koerner,charochkina,A5793,-,-,-,3.78,Log unit,25,?C,n1cnc2c(c(ccc2c1)OC)C,n
C1=CC2=C(C=NC=N2)N=C1,-,R1207678,M1106940,-,-,"1,3,5-triazanaphthalene",Koerner,charochkina,A5793,-,-,-,1.36,Log unit,25,?C,n1c2c(ncnc2)ccc1,n
C1=CC2=C(C=N1)N=CN=C2,-,R1207679,M1106941,-,-,"1,3,7-triazanaphthalene",Koerner,charochkina,A5793,-,-,-,1.81,Log unit,25,?C,n1cnc2cnccc2c1,n
C1=CC2=C(N=C1)N=CN=C2,-,R1207680,M1106942,-,-,"1,3,8-triazanaphthalene",Koerner,charochkina,A5793,-,-,-,1,Log unit,25,?C,n1c2ncncc2ccc1,n
NC1=NC(N)=C2C=CC=NC2=N1,-,R1207681,M1158209,-,-,"2,4-diamino-1,3,8-triazanaphthalene",Koerner,charochkina,A5793,-,-,-,6.62,Log unit,25,?C,n1c(nc2NCCCc2c1N)N,6
CC1=C2C(N)=NC(N)=NC2=NC=C1CC1=CC=CC=C1,-,R1207682,M1158210,-,-,"2,4-diamino-6-benzyl-5-methyl-1,3,8-triazanaphthalene",Koerner,charochkina,A5793,-,-,-,6.98,Log unit,25,?C,n1c(c2c(c(Cc3ccccc3)cnc2nc1N)C)N,6
C1=CC2=C(N=C1)N=CC=N2,-,R1207683,M19996,-,-,"1,4,5-triazanapthalene",Koerner,charochkina,A5793,-,-,-,1.2,Log unit,25,?C,n1ccnc2c1cccn2,1
NC1=NC2=C(C=C1)N=CC=N2,-,R1207684,M1158211,-,-,"6-amino-1,4,5-triazanapthalene",Koerner,charochkina,A5793,-,-,-,4.25,Log unit,25,?C,n1ccnc2c1ccc(N)n2,3
C1=NC2=CC=NC=C2N=C1,-,R1207685,M1158212,-,-,"1,4,6-triazanapthalene",Koerner,charochkina,A5793,-,-,-,2.4,Log unit,25,?C,n1ccc2nccnc2c1,3
CC1=NC2=C(C=NC=C2)N=C1C,-,R1207686,M1158213,-,-,"2,3-dimethyl-1,4,6-triazanaphthalene",Koerner,charochkina,A5793,-,-,-,3.28,Log unit,25,?C,n1cc2nc(c(C)nc2cc1)C,3
CC1=NC2=C(C=CN=C2)N=C1,-,R1207687,M1106943,-,-,"3-methyl-1,4,6-triazanaphthalene",Koerner,charochkina,A5793,-,-,-,3.315,Log unit,25,?C,n1ccc2ncc(nc2c1)C,n
OC(=O)c1ccc2[n+]c3ccccc3cc2c1,-,R1207708,M1158214,-,-,2-carboxyacridine,Koerner,charochkina,A5793,-,-,-,2.9,Log unit,25,?C,OC(=O)c1cc2cc3ccccc3[n+]c2cc1,co2h
NC1=CC=CC2=CC3=CC=CC(N)=C3N=C12,-,R1207715,M244226,-,-,"4,5-diaminoacridine",Koerner,charochkina,A5793,-,-,-,2.55,Log unit,25,?C,Nc1cccc2c1nc1c(cccc1c2)N,n
C1=CC2=NC3=CC=CC=C3N=C2C=C1,-,R1207736,M8453,-,-,Phenazine,Koerner,charochkina,A5793,-,-,-,0.9,Log unit,25,?C,n1c2ccccc2nc2ccccc12,n
NC1=CC2=NC3=CC=CC=C3N=C2C=C1,-,R1207737,M120412,-,-,2-Aminophenazine,Koerner,charochkina,A5793,-,-,-,4.71,Log unit,25,?C,n1c2ccccc2nc2ccc(cc12)N,n
NC1=CC2=NC3=C(C=C(N)C=C3)N=C2C=C1,-,R1207738,M120132,-,-,"2,7-Diaminophenazine",Koerner,charochkina,A5793,-,-,-,4.29,Log unit,25,?C,Nc1cc2nc3ccc(N)cc3nc2cc1,n
OC1=CC=CC2=NC3=CC=CC=C3N=C12,-,R1207739,M21280,-,-,1-Hydroxyphenazine,Koerner,charochkina,A5793,-,-,-,1.61,Log unit,25,?C,n1c2ccccc2nc2cccc(c12)O,n
CC(=O)NC1=CC=C(O)C=C1,-,R1321715,M10192,-,1,Acetaminophen,Koerner,charochkina,A4065,19961204,-,-,9.63,Log unit,,-,Oc1ccc(NC(=O)C)cc1,
CC(O)=O,-,R1321716,M9421,-,2,acetic acid,Koerner,charochkina,A4065,19961204,-,-,4.756,Log unit,,-,OC(=O)C,
[H]C(O)=O,-,R1321717,M675,-,3,Formic acid,Koerner,charochkina,A4065,19961204,-,-,3.742,Log unit,,-,OC=O,
CCC(O)=O,-,R1321718,M12780,-,4,Propionic Acid,Koerner,charochkina,A4065,19961204,-,-,4.874,Log unit,,-,OC(=O)CC,
NC1=C2N=CN(C3O[C@H](CO)[C@H](O)[C@@H]3O)C2=NC=N1,-,R1321719,M659513,-,5,Adenosine,Koerner,charochkina,A4065,19961204,-,-,12.35,Log unit,,-,OC1C(n2c3c(c(N)ncn3)nc2)OC(CO)C1O,
NC12CC3CC(CC(C3)C1)C2,-,R1321720,M164160,-,7,Amantadine,Koerner,charochkina,A4065,19961204,-,-,10.58,Log unit,,-,NC12CC3CC(C1)CC(C2)C3,
CN(C)C1=C(C)N(C)N(C1=O)C1=CC=CC=C1,-,R1321721,M9863,-,10,Aminopyrine,Koerner,charochkina,A4065,19961204,-,-,5.06,Log unit,,-,N(c1c(=O)n(n(C)c1C)c1ccccc1)(C)C,
[H]N([H])[C@@]([H])(C([H])([H])[H])C([H])([H])C1=C([H])C([H])=C([H])C([H])=C1[H],-,R1321722,M5940,-,11,Amphetamine,Koerner,charochkina,A4065,19961204,-,-,9.94,Log unit,,-,NC(Cc1ccccc1)C,
C[C@H](N)CC1=CC=C(O)C=C1,-,R1321723,M51424,-,12,"Amphetamine, 4-hydroxy",Koerner,charochkina,A4065,19961204,-,-,9.7,Log unit,,-,NC(Cc1ccc(cc1)O)C,
COC1=CC(C[C@H](C)N)=CC=C1,-,R1321724,M659514,-,13,"Amphetamine, 3-methoxy",Koerner,charochkina,A4065,19961204,-,-,9.86,Log unit,,-,NC(Cc1cccc(c1)OC)C,
COC1=CC=C(C[C@H](C)N)C=C1,-,R1321725,M659515,-,14,"Amphetamine, 4-methoxy",Koerner,charochkina,A4065,19961204,-,-,9.99,Log unit,,-,NC(Cc1ccc(cc1)OC)C,
[H][C@]12SC(C)(C)[C@@H](N1C(=O)[C@H]2NC(=O)COC1=CC=CC=C1)C(O)=O,-,R1321726,M929,-,15,Penicillin V,Koerner,charochkina,A4065,19961204,-,-,2.735,Log unit,,-,OC(=O)C1N2C(=O)C(NC(=O)COc3ccccc3)C2SC1(C)C,
CC1(C)SC2[C@H](NC(=O)C3(N)CCCC3)C(=O)N2[C@H]1C(O)=O,-,R1321727,M659516,-,16,WY-7953,Koerner,charochkina,A4065,19961204,4,7,2.62,Log unit,,-,OC(=O)C1N2C(=O)C(NC(=O)C3(CCCC3)N)C2SC1(C)C,
[H][C@]12SC(C)(C)[C@@H](N1C(=O)[C@H]2NC(=O)CC1=CC=CC=C1)C(O)=O,-,R1321728,M4999,-,18,Benzylpenicillin,Koerner,charochkina,A4065,19961204,-,-,2.72,Log unit,,-,OC(=O)C1N2C(C(NC(=O)Cc3ccccc3)C2=O)SC1(C)C,
CC1(C)S[C@@H]2[C@H](NC(=O)C3(N)CCCCC3)C(=O)N2[C@H]1C(O)=O,-,R1321729,M16533,-,19,CYCLACILLIN,Koerner,charochkina,A4065,19961204,-,-,2.68,Log unit,,-,OC(=O)C1N2C(C(NC(=O)C3(N)CCCCC3)C2=O)SC1(C)C,
[H]OC(=O)[C@]1([H])N2C(=O)[C@@]([H])(N([H])C(=O)C([H])(OC3=C([H])C([H])=C([H])C([H])=C3[H])C([H])([H])[H])[C@@]2([H])SC1(C([H])([H])[H])C([H])([H])[H],-,R1321730,M7475,-,20,Phenethicillin,Koerner,charochkina,A4065,19961204,4,7,2.73,Log unit,,-,OC(=O)C1N2C(=O)C(NC(=O)C(Oc3ccccc3)C)C2SC1(C)C,
CN1CCC=C(C1)C(O)=O,-,R1321731,M20931,-,21,Arecaidine,Koerner,charochkina,A4065,19961204,-,-,9.07,Log unit,,-,N1(CC(=CCC1)C(=O)O)C,
COC(=O)C1=CCCN(C)C1,-,R1321732,M3859,-,22,Arecaidine methyl ester,Koerner,charochkina,A4065,19961204,-,-,7.64,Log unit,,-,N1(CC(=CCC1)C(=O)OC)C,
CC(=O)OC1=CC=CC=C1C(O)=O,-,R1321733,M1025,-,24,Aspirin,Koerner,charochkina,A4065,19961204,-,-,3.47,Log unit,,-,OC(=O)c1c(OC(=O)C)cccc1,
CC(C)NCC(O)COC1=CC=C(CC(N)=O)C=C1,-,R1321734,M6702,-,25,atenolol,Koerner,charochkina,A4065,19961204,-,-,9.58,Log unit,,-,N(CC(COc1ccc(CC(=O)N)cc1)O)C(C)C,
CN1C=NC(=C1SC1=NC=NC2=C1NC=N2)[N+]([O-])=O,-,R1321735,M6271,-,27,Azathioprine,Koerner,charochkina,A4065,19961204,-,-,7.905,Log unit,,-,[nH]1c2c(Sc3c(ncn3C)[N+](=O)[O-])ncnc2nc1,
BrC1(Br)C(=O)NC(=O)NC1=O,-,R1321736,M66676,-,28,Barbituric acid,Koerner,charochkina,A4065,19961204,4,5,5.68,Log unit,,-,N1C(=O)C(C(=O)NC1=O)(Br)Br,
ClC1(Cl)C(=O)NC(=O)NC1=O,-,R1321737,M659518,-,29,Barbituric acid,Koerner,charochkina,A4065,19961204,4,5,5.55,Log unit,,-,N1C(=O)C(C(=O)NC1=O)(Cl)Cl,
CC1(C)C(=O)NC(=O)NC1=O,-,R1321738,M6029,-,30,Barbituric acid,Koerner,charochkina,A4065,19961204,4,5,8.505,Log unit,,-,N1C(=O)C(C(=O)NC1=O)(C)C,
CCC1(C)C(=O)NC(=O)NC1=O,-,R1321739,M9609,-,31,Barbituric acid,Koerner,charochkina,A4065,19961204,4,5,8.28,Log unit,,-,N1C(=O)C(CC)(C)C(=O)NC1=O,
CC(C)C1(C)C(=O)NC(=O)NC1=O,-,R1321740,M40365,-,32,Barbituric acid,Koerner,charochkina,A4065,19961204,4,5,8.45,Log unit,,-,N1C(=O)NC(=O)C(C1=O)(C(C)C)C,
CCC1(CC)C(=O)NC(=O)NC1=O,-,R1321741,M2907,-,33,Barbituric acid,Koerner,charochkina,A4065,19961204,4,5,7.9798,Log unit,,-,N1C(=O)C(CC)(CC)C(=O)NC1=O,
CCC1(C(C)C)C(=O)NC(=O)NC1=O,-,R1321742,M3813,-,34,Barbituric acid,Koerner,charochkina,A4065,19961204,4,5,8.14,Log unit,,-,N1C(=O)NC(=O)C(C1=O)(C(C)C)CC,
CCCC(C)C1(CC)C(=O)NC(=O)NC1=O,-,R1321743,M12223,-,35,Barbituric acid,Koerner,charochkina,A4065,19961204,4,5,8.13,Log unit,,-,N1C(=O)C(C(=O)NC1=O)(C(CCC)C)CC,
CCC1(CCC(C)C)C(=O)NC(=O)NC1=O,-,R1321744,M11726,-,36,Barbituric acid,Koerner,charochkina,A4065,19961204,4,5,7.95,Log unit,,-,N1C(=O)C(C(=O)NC1=O)(CCC(C)C)CC,
CCC1(C(C)CC(C)C)C(=O)NC(=O)NC1=O,-,R1321745,M659519,-,37,Barbituric acid,Koerner,charochkina,A4065,19961204,4,5,8.14,Log unit,,-,N1C(=O)C(C(=O)NC1=O)(C(CC(C)C)C)CC,
CCC1(CC=C)C(=O)NC(=O)NC1=O,-,R1321746,M9318,-,38,Barbituric acid,Koerner,charochkina,A4065,19961204,4,5,7.89,Log unit,,-,N1C(=O)C(CC=C)(CC)C(=O)NC1=O,
CC(C)C1(CC=C)C(=O)NC(=O)NC1=O,-,R1321747,M11239,-,39,Barbituric acid,Koerner,charochkina,A4065,19961204,4,5,8.01,Log unit,,-,N1C(=O)NC(=O)C(C1=O)(C(C)C)CC=C,
C=CCC1(CC=C)C(=O)NC(=O)NC1=O,-,R1321748,M2519,-,40,Barbituric acid,Koerner,charochkina,A4065,19961204,4,5,7.81,Log unit,,-,N1C(=O)C(CC=C)(CC=C)C(=O)NC1=O,
CC(C)=CCC1(C)C(=O)NC(=O)NC1=O,-,R1321749,M44829,-,41,Barbituric acid,Koerner,charochkina,A4065,19961204,4,5,8.39,Log unit,,-,N1C(=O)C(C(=O)NC1=O)(CC=C(C)C)C,
CCC1(CC=C(C)C)C(=O)NC(=O)NC1=O,-,R1321750,M11583,-,42,Barbituric acid,Koerner,charochkina,A4065,19961204,4,5,8.06,Log unit,,-,N1C(=O)C(C(=O)NC1=O)(CC=C(C)C)CC,
CC(C)C1(CC=C(C)C)C(=O)NC(=O)NC1=O,-,R1321751,M14001,-,43,Barbituric acid,Koerner,charochkina,A4065,19961204,4,5,8.19,Log unit,,-,N1C(=O)C(C(=O)NC1=O)(CC=C(C)C)C(C)C,
CC(C)=CCC1(C(=O)NC(=O)NC1=O)C(C)(C)C,-,R1321752,M48260,-,44,Barbituric acid,Koerner,charochkina,A4065,19961204,4,5,8.39,Log unit,,-,N1C(=O)C(C(=O)NC1=O)(CC=C(C)C)C(C)(C)C,
CC(C)=CCC1(CC=C(C)C)C(=O)NC(=O)NC1=O,-,R1321753,M659520,-,45,Barbituric acid,Koerner,charochkina,A4065,19961204,4,5,8.13,Log unit,,-,N1C(=O)C(C(=O)NC1=O)(CC=C(C)C)CC=C(C)C,
CC(C)CC(=C)C1(C)C(=O)NC(=O)NC1=O,-,R1321754,M659521,-,46,Barbituric acid,Koerner,charochkina,A4065,19961204,4,5,7.78,Log unit,,-,N1C(=O)C(C(=O)NC1=O)(C(=C)CC(C)C)C,
CCC1(C(=C)CC(C)C)C(=O)NC(=O)NC1=O,-,R1321755,M659522,-,47,Barbituric acid,Koerner,charochkina,A4065,19961204,4,5,7.48,Log unit,,-,N1C(=O)C(C(=O)NC1=O)(C(=C)CC(C)C)CC,
CC1(C(=O)NC(=O)NC1=O)C1=CC=CC=C1,-,R1321756,M17469,-,48,Barbituric acid,Koerner,charochkina,A4065,19961204,4,5,7.78,Log unit,,-,N1C(=O)C(C(=O)NC1=O)(c1ccccc1)C,
CCC1(C(=O)NC(=O)NC1=O)C1=CC=CC=C1,-,R1321757,M1860,-,49,Barbituric acid,Koerner,charochkina,A4065,19961204,4,5,7.48,Log unit,,-,N1C(=O)C(C(=O)NC1=O)(c1ccccc1)CC,
CCC1(C(=O)NC(=O)NC1=O)C1=CC(=CC=C1)[N+]([O-])=O,-,R1321758,M659523,-,50,Barbituric acid,Koerner,charochkina,A4065,19961204,4,5,7.015,Log unit,,-,N1C(=O)C(C(=O)NC1=O)(c1cc([N+](=O)[O-])ccc1)CC,
CCC1(C(=O)NC(=O)NC1=O)C1=CC=C(C=C1)[N+]([O-])=O,-,R1321759,M659524,-,51,Barbituric acid,Koerner,charochkina,A4065,19961204,4,5,6.94,Log unit,,-,N1C(=O)C(C(=O)NC1=O)(c1ccc([N+](=O)[O-])cc1)CC,
O=C1NC(=O)C(C(=O)N1)(C1=CC=CC=C1)C1=CC=CC=C1,-,R1321760,M4461,-,52,Barbituric acid,Koerner,charochkina,A4065,19961204,4,5,7.3,Log unit,,-,N1C(=O)C(C(=O)NC1=O)(c1ccccc1)c1ccccc1,
O=C1NC(=O)C2(CC2)C(=O)N1,-,R1321761,M8761,-,53,Barbituric acid,Koerner,charochkina,A4065,19961204,4,5,8.73,Log unit,,-,N1C(=O)C2(C(=O)NC1=O)CC2,
O=C1NC(=O)C2(CCC2)C(=O)N1,-,R1321762,M11897,-,54,Barbituric acid,Koerner,charochkina,A4065,19961204,4,5,8.82,Log unit,,-,N1C(=O)C2(CCC2)C(=O)NC1=O,
O=C1NC(=O)C2(CCCC2)C(=O)N1,-,R1321763,M4209,-,55,Barbituric acid,Koerner,charochkina,A4065,19961204,4,5,8.83,Log unit,,-,N1C(=O)C2(CCCC2)C(=O)NC1=O,
O=C1NC(=O)C2(CCCCC2)C(=O)N1,-,R1321764,M7171,-,56,Barbituric acid,Koerner,charochkina,A4065,19961204,4,5,8.88,Log unit,,-,N1C(=O)C2(CCCCC2)C(=O)NC1=O,
CCOC(=O)C1=CC=C(N)C=C1,-,R1321765,M844,-,57,Benzocaine,Koerner,charochkina,A4065,19961204,-,-,2.515,Log unit,,-,Nc1ccc(C(=O)OCC)cc1,
OC(=O)C1=CC=CC=C1,-,R1321766,M12504,-,58,Benzoic acid,Koerner,charochkina,A4065,19961204,-,,4.207,Log unit,,-,OC(=O)c1ccccc1,
COC(=O)[C@@H]1C2CCC(C[C@@H]1OC(=O)C1=CC=CC=C1)N2C,-,R1321767,M14297,-,59,Benzoylecgonine methyl ester,Koerner,charochkina,A4065,19961204,4,7,8.7,Log unit,,-,N1(C2C(C(CC1CC2)OC(=O)c1ccccc1)C(=O)OC)C,
OB(O)O,-,R1321768,M5551,-,60,BORIC ACID,Koerner,charochkina,A4065,19961204,-,-,9.234,Log unit,,-,O[B](O)O,
COC1=CC2=C(C=C1OC)[C@@]13CCN4CC5=CCOC6CC(=O)N2C1[C@@H]6[C@@H]5C[C@H]34,-,R1321769,M659525,-,61,brucine,Koerner,charochkina,A4065,19961204,4,7,8.28,Log unit,,-,N12C3C4(C5N(C(=O)CC6C5C(C3)C(=CCO6)C1)c1c4cc(c(c1)OC)OC)CC2,
C[C@H](CCC(O)=O)C1CC[C@H]2[C@@H]3[C@H](O)C[C@@H]4C[C@H](O)CC[C@]4(C)[C@H]3CC[C@]12C,-,R1321770,M659526,-,63,chenodeoxycholic acid,Koerner,charochkina,A4065,19961204,4,7,5.03,Log unit,,-,OC(=O)CCC(C1C2(C(C3C(C4(C(CC(O)CC4)CC3O)C)CC2)CC1)C)C,
[H]OC(=O)C([H])([H])C([H])([H])[C@@]([H])(C([H])([H])[H])[C@@]1([H])C([H])([H])C([H])([H])[C@@]2([H])[C@]3([H])[C@@]([H])(O[H])C([H])([H])[C@]4([H])C([H])([H])[C@]([H])(O[H])C([H])([H])C([H])([H])[C@]4(C([H])([H])[H])[C@@]3([H])C([H])([H])C([H])([H])[C@]12C([H])([H])[H],-,R1321771,M10055,-,64,Ursodiol,Koerner,charochkina,A4065,19961204,-,-,5.04,Log unit,,-,OC(=O)CCC(C1CCC2C3C(CC4CC(O)CCC4(C)C3CCC12C)O)C,
CC1(C)S[C@@H](N[C@H]1C(O)=O)[C@H](NC(=O)CC1=CC=CC=C1)C(O)=O,-,R1321772,M659527,-,67,Benzylpenicilloic acid,Koerner,charochkina,A4065,19961204,4,7,5.32,Log unit,,-,N1C(SC(C)(C)C1C(=O)O)C(NC(=O)Cc1ccccc1)C(=O)O,
CC1(C)S[C@@H](N[C@H]1C(O)=O)[C@H](NC(=O)CCOC1=CC=CC=C1)C(O)=O,-,R1321773,M659528,-,68,Phenoxyethylpenicilloic acid,Koerner,charochkina,A4065,19961204,-,-,5.29,Log unit,,-,N1C(SC(C)(C)C1C(=O)O)C(NC(=O)CCOc1ccccc1)C(=O)O,
CC1(C)S[C@@H](N[C@H]1C(O)=O)[C@H](NC(=O)CCCOC1=CC=CC=C1)C(O)=O,-,R1321774,M659529,-,69,Phenoxypropylpenicilloic acid,Koerner,charochkina,A4065,19961204,-,-,5.3,Log unit,,-,N1C(C(=O)O)C(C)(SC1C(NC(=O)CCCOc1ccccc1)C(=O)O)C,
CNC(=N)NC(=N)NC1=CC=C(Cl)C=C1,-,R1321775,M41241,-,70,N1-p-Chlorophenyl-N5-alkylbigu,Koerner,charochkina,A4065,19961204,-,-,10.95,Log unit,,-,N=C(NC(=N)Nc1ccc(cc1)Cl)NC,
CC1=NC(C)=C(C)C(=N1)S([O-])(=O)=O,-,R1207394,M1158149,-,-,"2,4,5-trimethyl-6-sulphopyrimidine",Koerner,charochkina,A5793,-,-,-,2.33,Log unit,25,?C,n1c(nc(S(=O)(=O)[O-])c(c1C)C)C,1
NC1=NC=CN=N1,-,R1207395,M24635,-,-,"3-Amino-1,2,4-triazine",Koerner,charochkina,A5793,-,-,-,3.09,Log unit,25,?C,n1c(nncc1)N,4
CC1=NC(N)=NC(C)=N1,-,R1207396,M1158150,-,-,"2-amino-4,6-dimethyl-1,3,5-triazine",Koerner,charochkina,A5793,-,-,-,3.56,Log unit,25,?C,n1c(nc(nc1C)N)C,3
NC1=NN=C(CC2=CC=C(Cl)C=C2)C(N)=N1,-,R1207397,M1158151,-,-,"3,5-diamino-6-(p-chlorobenzyl)1,2,4-triazine",Koerner,charochkina,A5793,-,-,-,6.47,Log unit,25,?C,n1nc(Cc2ccc(Cl)cc2)c(nc1N)N,6
NC1=NN=C(C(N)=N1)C1=CC=C(Cl)C=C1,-,R1207398,M1158152,-,-,"3,5-diamino-6-(p-chlorophenyl)1,2,4-triazine",Koerner,charochkina,A5793,-,-,-,6.07,Log unit,25,?C,n1nc(c2ccc(Cl)cc2)c(nc1N)N,6