"SMILES","CASRN","RECORDID","MOLECULEID","EXTERNALID","N","NAME","NAME","INTRODUCER","MODIFIER","ARTICLEID","PUBMEDID","PAGE","TABLE","pKa (smiles as ob. cond.) {measured}","UNIT {pKa (smiles as ob. cond.)}","pKa (smiles as ob. cond.) {measured, converted}","UNIT {pKa (smiles as ob. cond.)}","Ionizable centre (smiles)","IC group detected","AtomNR of IC","groupsAndICs","IC smiles given","IC group given","Temperature","UNIT {Temperature}","MultiGroupDetection","COMMENTS","INCHI_KEY"
"COC1=CC(Cl)=NC=C1","-","R946054","M1106740","-","-","2-chloro-4-methoxypyridine","-","Koerner","charochkina","A5793","-","-","-","1.93","Log unit","1.93","Log unit","n1c(Cl)cc(cc1)OC","2","","{n=[2]}","Cl-c(ncc1)cc1OC","n","25.0","?C","","-","PMTPFBWHUOWTNN-UHFFFAOYSA"
"COC1=CC=CC(Cl)=N1","-","R946055","M34120","-","-","2-Chloro-6-methoxypyridine","-","Koerner","charochkina","A5793","-","-","-","-0.13","Log unit","-0.13","Log unit","n1c(Cl)cccc1OC","2","","{n=[2]}","Cl-c(nc(c1)OC)cc1","n","25.0","?C","","-","VAVGOGHLNAJECD-UHFFFAOYSA"
"COC1=NC=C(Cl)C=C1","-","R946056","M1106741","-","-","5-chloro-2-methoxypyridine","-","Koerner","charochkina","A5793","-","-","-","1.18","Log unit","1.18","Log unit","n1cc(Cl)ccc1OC","3","","{n=[3]}","Cl-c(cnc1OC)cc1","n","25.0","?C","","-","NPYYXUYLIHZYOU-UHFFFAOYSA"
"ClC1=NC=CC=C1N(=O)=O","-","R946057","M75580","-","-","2-Chloro-3-nitropyridine","-","Koerner","charochkina","A5793","-","-","-","-2.6","Log unit","-2.6","Log unit","n1c(Cl)c(ccc1)N(=O)=O","2","","{n=[2], nr2=[7]}","Cl-c(ncc1)c(c1)N(=O)=O","n","25.0","?C","","-","UUOLETYDNTVQDY-UHFFFAOYSA"
"C(C=C(C1=CC=CC=C1)C1=CC=CC=N1)N1CCCC1","-","R946058","M1106742","-","-","2-(1-p-chlorophenyl-3-pyrrolidino)prop-1-enylpyridine","-","Koerner","charochkina","A5793","-","-","-","9.37","Log unit","9.37","Log unit","N1(CC=C(c2ncccc2)c2ccccc2)CCCC1","15","","{n=[0], nr2=[15]}","n(ccc1)c(c1)C(c(ccc2)cc2)=CCN(CC3)CC3","nr2","25.0","?C","","-","ASVPYXVMPVFDBI-UHFFFAOYSA"
"C(C=C(C1=CC=CC=C1)C1=CC=CC=N1)[NH+]1CCCC1","-","R946059","M1106742","-","-","2-(1-p-chlorophenyl-3-pyrrolidino)prop-1-enylpyridine","-","Koerner","charochkina","A5793","-","-","-","3.2","Log unit","3.2","Log unit","n1ccccc1C(=CC[NH+]1CCCC1)c1ccccc1","0","","{n=[0], nr2=[15]}","n(ccc1)c(c1)C(c(ccc2)cc2)=CC[N+1](CC3)CC3","n","25.0","?C","","-","ASVPYXVMPVFDBI-UHFFFAOYSA"
"ClC1=CC=C(C=CC2=CC=NC=C2)C=C1","-","R946060","M1106743","-","-","trans-4-p-chlorostyryl-pyridine","-","Koerner","charochkina","A5793","-","-","-","5.66","Log unit","5.66","Log unit","n1ccc(C=Cc2ccc(Cl)cc2)cc1","10","","{n=[10]}","Cl-c(ccc1C=C-c(ccn2)cc2)cc1","n","25.0","?C","","-","PONMZBJRRLHVPF-UHFFFAOYSA"
"N#CC1=CC=CC=N1","-","R946061","M2561","-","-","2-cyanopyridine","-","Koerner","charochkina","A5793","-","-","-","-0.26","Log unit","-0.26","Log unit","n1ccccc1C#N","0","","{n=[0]}","n(ccc1)c(c1)C#N","n","25.0","?C","","-","FFNVQNRYTPFDDP-UHFFFAOYSA"
"N#CC1=CN=CC=C1","-","R946062","M3634","-","-","3-cyano-pyridine","-","Koerner","charochkina","A5793","-","-","-","1.375","Log unit","1.375","Log unit","n1cccc(c1)C#N","0","","{n=[0]}","n(ccc1)cc1C#N","n","25.0","?C","","-","GZPHSAQLYPIAIN-UHFFFAOYSA"
"N#CC1=CC=NC=C1","-","R946063","M3404","-","-","4-cyano-pyridine","-","Koerner","charochkina","A5793","-","-","-","1.9","Log unit","1.9","Log unit","n1ccc(C#N)cc1","0","","{n=[0]}","n(ccc1C#N)cc1","n","25.0","?C","","-","GPHQHTOMRSGBNZ-UHFFFAOYSA"
"NC1=C(N)N=CC=C1","-","R946064","M66389","-","-","2,3-Diaminopyridine","-","Koerner","charochkina","A5793","-","-","-","6.899","Log unit","6.899","Log unit","n1cccc(c1N)N","0","","{n=[0], nr2=[5, 7]}","n(ccc1)c(N)c1N","n","25.0","?C","","-","ZZYXNRREDYWPLN-UHFFFAOYSA"
"NC1=CC=C(N)N=C1","-","R946065","M29207","-","-","2,5-Diaminopyridine","-","Koerner","charochkina","A5793","-","-","-","6.48","Log unit","6.48","Log unit","n1cc(ccc1N)N","0","","{n=[0], nr2=[4, 7]}","n(cc(c1)N)c(c1)N","n","25.0","?C","","-","MIROPXUFDXCYLG-UHFFFAOYSA"
"NC1=CC=NC=C1N","-","R946066","M17075","-","-","4,5-Diaminopyridine","-","Koerner","charochkina","A5793","-","-","-","9.01","Log unit","9.01","Log unit","n1ccc(N)c(N)c1","0","","{n=[0], nr2=[4, 6]}","n1ccc(N)c(N)c1","n","25.0","?C","","-","OYTKINVCDFNREN-UHFFFAOYSA"
"NC1=C(N)N=C(Cl)C=C1","-","R946067","M981042","-","-","2,3-diamino-6-chloropyridine","-","Koerner","charochkina","A5793","-","-","-","3.02","Log unit","3.02","Log unit","n1c(Cl)ccc(c1N)N","2","","{n=[2], nr2=[4, 6]}","Cl-c(nc(N)c1N)cc1","n","25.0","?C","","-","QEIRYIILFUVXAM-UHFFFAOYSA"
"NC1=CN=C(Cl)C=C1N","-","R946068","M1106744","-","-","4,5-diamino-2-chloropyridine","-","Koerner","charochkina","A5793","-","-","-","4.79","Log unit","4.79","Log unit","n1c(Cl)cc(c(c1)N)N","2","","{n=[2], nr2=[5, 8]}","Cl-c(ncc1N)cc1N","n","25.0","?C","","-","OQRXBXNATIHDQO-UHFFFAOYSA"
"COC1=NC=C(Br)C=C1Br","-","R946069","M1106745","-","-","3,5-dibromo-2-methoxypyridine","-","Koerner","charochkina","A5793","-","-","-","-1.5","Log unit","-1.5","Log unit","n1cc(Br)cc(c1OC)Br","3","","{n=[3]}","Br-c(cnc1OC)cc1Br","n","25.0","?C","","-","MBMQYTQCUCQJEH-UHFFFAOYSA"
"CC(C)(C)C1=CC=CC(=N1)C(C)(C)C","-","R946070","M21955","-","-","2,6-DI-T-BUTYLPYRIDINE","-","Koerner","charochkina","A5793","-","-","-","5.02","Log unit","5.02","Log unit","n1c(cccc1C(C)(C)C)C(C)(C)C","0","","{n=[0]}","n(c(cc1)C(C)(C)C)c(c1)C(C)(C)C","n","25.0","?C","","-","UWKQJZCTQGMHKD-UHFFFAOYSA"
"CC(C)(C)C1=CC(=CC(=N1)C(C)(C)C)S([O-])(=O)=O","-","R946071","M1106746","-","-","2,6-di-t-butyl-3-sulphopyridine","-","Koerner","charochkina","A5793","-","-","-","4.12","Log unit","4.12","Log unit","n1c(cc(S(=O)(=O)[O-])cc1C(C)(C)C)C(C)(C)C","7","","{n=[7]}","S(=O)(=O)([O-1])-c(cc(n1)C(C)(C)C)cc1C(C)(C)C","n","25.0","?C","","-","OIOWRTLVDYBECE-UHFFFAOYSA"
"OC(=O)C1[NH2+]CCCC1C([O-])=O","-","R946072","M133419","-","-","2,3-dicarboxypyridine","-","Koerner","charochkina","A5793","-","-","-","2.43","Log unit","2.43","Log unit","OC(=O)C1[NH2+][CH][CH][CH]C1C(=O)[O-]","11","","{co2h=[11]}","[n+1](ccc1)c(c1C(=O)[O-1])C(=O)O","co2h","25.0","?C","","-","PTLWNCBCBZZBJI-UHFFFAOYSA"
"[O-]C(=O)C1=C(N=CC=C1)C([O-])=O","-","R946073","M17897","-","-","2,3-dicarboxypyridine","-","Koerner","charochkina","A5793","-","-","-","5.06","Log unit","5.06","Log unit","n1cccc(c1C(=O)[O-])C(=O)[O-]","0","","{n=[0]}","n(ccc1)c(c1C(=O)[O-1])C(=O)[O-1]","n","25.0","?C","","-","GJAWHXHKYYXBSV-UHFFFAOYSA"
"[O-]C(=O)C1=CN=C(C=C1)C([O-])=O","-","R946074","M18316","-","-","2,3-dicarboxypyridine","-","Koerner","charochkina","A5793","-","-","-","5.12","Log unit","5.12","Log unit","n1c(C(=O)[O-])ccc(C(=O)[O-])c1","0","","{n=[0]}","n1c(C(=O)[O-1])ccc(C(=O)[O-1])c1","n","25.0","?C","","-","LVPMIMZXDYBCDF-UHFFFAOYSA"
"[O-]C(=O)C1=CC=CC(=N1)C([O-])=O","-","R946075","M20944","-","-","2,6-Dicarboxypyridine","-","Koerner","charochkina","A5793","-","-","-","4.68","Log unit","4.68","Log unit","n1c(cccc1C(=O)[O-])C(=O)[O-]","0","","{n=[0]}","n(c(cc1)C(=O)[O-1])c(c1)C(=O)[O-1]","n","25.0","?C","","-","WJJMNDUMQPNECX-UHFFFAOYSA"
"OC(=O)C1CCCC([NH2+]1)C([O-])=O","-","R946076","M1007905","-","-","2,6-Dicarboxypyridine","-","Koerner","charochkina","A5793","-","-","-","1.8","Log unit","1.8","Log unit","OC(=O)C1[NH2+]C([CH][CH][CH]1)C(=O)[O-]","6","","{co2h=[6]}","[n+1](c(cc1)C(=O)O)c(c1)C(=O)[O-1]","co2h","25.0","?C","","-","SOOPBZRXJMNXTF-UHFFFAOYSA"
"OC(=O)C1=CC=NC=C1C(O)=O","-","R946077","M20812","-","-","3,4-dicarboxypyridine","-","Koerner","charochkina","A5793","-","-","-","2.93","Log unit","2.93","Log unit","OC(=O)c1ccncc1C(=O)O","6","","{co2h=[6, 11], n=[0]}","n(ccc1C(=O)O)cc1C(=O)O","co2h","25.0","?C","true","-","MUYSADWCWFFZKR-UHFFFAOYSA"
"[O-]C(=O)C1=CC=NC=C1C([O-])=O","-","R946078","M20812","-","-","3,4-dicarboxypyridine","-","Koerner","charochkina","A5793","-","-","-","5.07","Log unit","5.07","Log unit","n1ccc(C(=O)[O-])c(c1)C(=O)[O-]","0","","{n=[0]}","n(ccc1C(=O)[O-1])cc1C(=O)[O-1]","n","25.0","?C","","-","MUYSADWCWFFZKR-UHFFFAOYSA"
"OC(=O)C1C[NH2+]CC(C1)C(O)=O","-","R946079","M740902","-","-","3,5-dicarboxypyridine","-","Koerner","charochkina","A5793","-","-","-","1.4","Log unit","1.4","Log unit","OC(=O)C1[CH][NH2+][CH]C([CH]1)C(=O)O","6","","{co2h=[6, 11]}","[n+1](cc(c1)C(=O)O)cc1C(=O)O","co2h","25.0","?C","true","-","YWWGOKNLNRUDAC-UHFFFAOYSA"
"OC(=O)C1C[NH2+]CC(C1)C([O-])=O","-","R946080","M740902","-","-","3,5-dicarboxypyridine","-","Koerner","charochkina","A5793","-","-","-","2.42","Log unit","2.42","Log unit","OC(=O)C1[CH][NH2+][CH]C([CH]1)C(=O)[O-]","11","","{co2h=[11]}","[n+1](cc(c1)C(=O)[O-1])cc1C(=O)O","co2h","25.0","?C","","-","YWWGOKNLNRUDAC-UHFFFAOYSA"
"OC(=O)C1CC(Cl)CC([NH2+]1)C([O-])=O","-","R946081","M1107280","-","-","2,6-dicarboxy-4-chloropyridine","-","Koerner","charochkina","A5793","-","-","-","1.4","Log unit","1.4","Log unit","OC(=O)C1[CH]C(Cl)[CH]C([NH2+]1)C(=O)[O-]","12","","{co2h=[12]}","Cl-c(cc([n+1]1)C(=O)[O-1])cc1C(=O)O","co2h","25.0","?C","","-","FGGKBYIDEAVGMZ-UHFFFAOYSA"
"[O-]C(=O)C1=CC(Cl)=CC(=N1)C([O-])=O","-","R946082","M1106747","-","-","2,6-dicarboxy-4-chloropyridine","-","Koerner","charochkina","A5793","-","-","-","3.75","Log unit","3.75","Log unit","n1c(cc(Cl)cc1C(=O)[O-])C(=O)[O-]","4","","{n=[4]}","Cl-c(cc(n1)C(=O)[O-1])cc1C(=O)[O-1]","n","25.0","?C","","-","IYUMNONNHYADBU-UHFFFAOYSA"
"CC1[NH2+]C(C)C(CC1C(O)=O)C(O)=O","-","R946083","M1107281","-","-","3,5-dicarboxy-2,6-dimethylpyridine","-","Koerner","charochkina","A5793","-","-","-","2.02","Log unit","2.02","Log unit","OC(=O)C1C([NH2+]C(C)C([CH]1)C(=O)O)C","7","","{co2h=[7, 13]}","[n+1](c(C)c(c1)C(=O)O)c(C)c1C(=O)O","co2h","25.0","?C","true","-","ZNFPBVOVABDHTH-UHFFFAOYSA"
"CC1[NH2+]C(C)C(CC1C(O)=O)C([O-])=O","-","R946084","M1107281","-","-","3,5-dicarboxy-2,6-dimethylpyridine","-","Koerner","charochkina","A5793","-","-","-","2.52","Log unit","2.52","Log unit","OC(=O)C1C([NH2+]C(C)C([CH]1)C(=O)[O-])C","13","","{co2h=[13]}","[n+1](c(C)c(c1)C(=O)[O-1])c(C)c1C(=O)O","co2h","25.0","?C","","-","ZNFPBVOVABDHTH-UHFFFAOYSA"
"CC1=NC(C)=C(C=C1C([O-])=O)C([O-])=O","-","R946085","M27157","-","-","3,5-dicarboxy-2,6-dimethylpyridine","-","Koerner","charochkina","A5793","-","-","-","6.2","Log unit","6.2","Log unit","n1c(C)c(cc(c1C)C(=O)[O-])C(=O)[O-]","0","","{n=[0]}","n(c(C)c(c1)C(=O)[O-1])c(C)c1C(=O)[O-1]","n","25.0","?C","","-","WQFXJSOUBPGBGW-UHFFFAOYSA"
"[O-]C(=O)C1=CC([O-])=CC(=N1)C([O-])=O","-","R946086","M20937","-","-","2,6-dicarboxy-4-hydroxypyridine","-","Koerner","charochkina","A5793","-","-","-","10.85","Log unit","10.85","Log unit","n1c(cc([O-])cc1C(=O)[O-])C(=O)[O-]","0","","{n=[0]}","n(c(cc1[O-1])C(=O)[O-1])c(c1)C(=O)[O-1]","n","25.0","?C","","-","XTLJJHGQACAZMS-UHFFFAOYSA"
"OC1CC([NH2+]C(C1)C([O-])=O)C([O-])=O","-","R946087","M1107282","-","-","2,6-dicarboxy-4-hydroxypyridine","-","Koerner","charochkina","A5793","-","-","-","3.18","Log unit","3.18","Log unit","OC1[CH]C([NH2+]C([CH]1)C(=O)[O-])C(=O)[O-]","4","","{oh=[4]}","[n+1](c(cc1O)C(=O)[O-1])c(c1)C(=O)[O-1]","oh","25.0","?C","","-","ANOHVJUUPGOKGE-UHFFFAOYSA"
"OC1CC([NH2+]C(C1)C([O-])=O)C(O)=O","-","R946088","M1107282","-","-","2,6-dicarboxy-4-hydroxypyridine","-","Koerner","charochkina","A5793","-","-","-","1.3","Log unit","1.3","Log unit","OC(=O)C1[NH2+]C([CH]C(O)[CH]1)C(=O)[O-]","12","","{co2h=[12], oh=[4]}","[n+1](c(cc1O)C(=O)[O-1])c(c1)C(=O)O","co2h","25.0","?C","","-","ANOHVJUUPGOKGE-UHFFFAOYSA"
"ClC1=CC=CN=C1Cl","-","R946089","M6607","-","-","2,3-Dichloropyridine","-","Koerner","charochkina","A5793","-","-","-","-0.85","Log unit","-0.85","Log unit","n1c(Cl)c(Cl)ccc1","2","","{n=[2]}","Cl-c(ncc1)c(Cl)c1","n","25.0","?C","","-","MAKFMOSBBNKPMS-UHFFFAOYSA"
"ClC1=CC=CC(Cl)=N1","-","R946090","M2626","-","-","2,6-Dichloropyridine","-","Koerner","charochkina","A5793","-","-","-","-2.86","Log unit","-2.86","Log unit","n1c(Cl)cccc1Cl","2","","{n=[2]}","Cl-c(nc(Cl)c1)cc1","n","25.0","?C","","-","FILKGCRCWDMBKA-UHFFFAOYSA"
"ClC1=CC(Cl)=CN=C1","-","R946091","M12493","-","-","3,5-Dichloropyridine","-","Koerner","charochkina","A5793","-","-","-","0.71","Log unit","0.71","Log unit","n1cc(Cl)cc(c1)Cl","3","","{n=[3]}","Cl-c(cnc1)cc1Cl","n","25.0","?C","","-","WPGHPGAUFIJVJF-UHFFFAOYSA"
"OC1=CC(Cl)=NC(Cl)=C1","-","R946092","M1107283","-","-","2,6-dichloro-4-hydroxypyridine","-","Koerner","charochkina","A5793","-","-","-","5.9","Log unit","5.9","Log unit","Oc1cc(Cl)nc(Cl)c1","8","","{n=[2], oh=[8]}","Cl-c(nc(Cl)c1)cc1O","oh","25.0","?C","","-","OSNKDCCXTYRUGA-UHFFFAOYSA"
"COC1=NC=C(Cl)C=C1Cl","-","R946093","M1106748","-","-","3,5-dichloro-2-methoxypyridine","-","Koerner","charochkina","A5793","-","-","-","-1.4","Log unit","-1.4","Log unit","n1cc(Cl)cc(c1OC)Cl","3","","{n=[3]}","Cl-c(cnc1OC)cc1Cl","n","25.0","?C","","-","XMASGFYUZZRWOE-UHFFFAOYSA"
"COC1=C(Cl)C=NC=C1Cl","-","R946094","M1106749","-","-","3,5-dichloro-4-methoxypyridine","-","Koerner","charochkina","A5793","-","-","-","1.14","Log unit","1.14","Log unit","n1cc(Cl)c(c(c1)Cl)OC","3","","{n=[3]}","Cl-c(cnc1)c(c1Cl)OC","n","25.0","?C","","-","OKLLCBHMGGNTKF-UHFFFAOYSA"
"COC1=CC(Cl)=NC(Cl)=C1","-","R946095","M1106750","-","-","2,6-dichloro-4-methoxypyridine","-","Koerner","charochkina","A5793","-","-","-","-1.36","Log unit","-1.36","Log unit","n1c(Cl)cc(cc1Cl)OC","2","","{n=[2]}","Cl-c(nc(Cl)c1)cc1OC","n","25.0","?C","","-","MMQWWYZZOZBFHY-UHFFFAOYSA"
"CCOC(=O)C1=CC(C(=O)OCC)=C(C)N=C1C","-","R946096","M738419","-","-","3,5-diethoxycarbonyl-2,6-dimethylpyridine","-","Koerner","charochkina","A5793","-","-","-","2.96","Log unit","2.96","Log unit","n1c(C)c(cc(c1C)C(=O)OCC)C(=O)OCC","0","","{n=[0]}","n(c(C)c(c1)C(=O)OCC)c(C)c1C(=O)OCC","n","25.0","?C","","-","DIIWSYPKAJVXBV-UHFFFAOYSA"
"CCOC(=O)C1=C(C)C(C(=O)CC)=C(C)N=C1C","-","R946097","M1106751","-","-","3,5-diethoxycarbonyl-2,4,6-trimethylpyridine","-","Koerner","charochkina","A5793","-","-","-","3.1","Log unit","3.1","Log unit","n1c(C)c(c(C)c(c1C)C(=O)CC)C(=O)OCC","0","","{n=[0]}","n(c(C)c(c1C)C(=O)OCC)c(C)c1C(=O)CC","n","25.0","?C","","-","AVOGRFVNPPOPCF-UHFFFAOYSA"
"COC1=NC(CO)=C(CO)C=C1","-","R946098","M1106752","-","-","2,3-di(hydroxymethyl)-6-methoxypyridine","-","Koerner","charochkina","A5793","-","-","-","2.98","Log unit","2.98","Log unit","n1c(ccc(c1CO)CO)OC","0","","{n=[0], oh=[9, 11]}","n(c(cc1)OC)c(c1CO)CO","n","25.0","?C","","-","NOPJCGPBOMSMLC-UHFFFAOYSA"
"O=CC1=CC=CC(C=O)=N1","-","R946099","M75449","-","-","2,6-diformylpyridine","-","Koerner","charochkina","A5793","-","-","-","1.94","Log unit","1.94","Log unit","n1c(cccc1C=O)C=O","0","","{n=[0]}","n(c(cc1)C=O)c(c1)C=O","n","25.0","?C","","-","PMWXGSWIOOVHEQ-UHFFFAOYSA"
"COC1=CC=CC(OC)=N1","-","R946100","M30989","-","-","2,6-Dimethoxypyridine","-","Koerner","charochkina","A5793","-","-","-","1.6","Log unit","1.6","Log unit","n1c(cccc1OC)OC","0","","{n=[0]}","n(c(cc1)OC)c(c1)OC","n","25.0","?C","","-","IBTGEEMBZJBBSH-UHFFFAOYSA"
"COC(=O)C1=C(N=CC=C1)C(=O)OC","-","R946101","M111183","-","-","2,3-di(methoxycarbonyl)pyridine","-","Koerner","charochkina","A5793","-","-","-","-0.15","Log unit","-0.15","Log unit","n1cccc(c1C(=O)OC)C(=O)OC","0","","{n=[0]}","n(ccc1)c(c1C(=O)OC)C(=O)OC","n","25.0","?C","","-","YLGIBCYHQZTFQL-UHFFFAOYSA"
"CC1=C(C)N=CC=C1","-","R946102","M3998","-","-","2,3-dimethylpyridine","-","Koerner","charochkina","A5793","-","-","-","6.585","Log unit","6.585","Log unit","n1cccc(c1C)C","0","","{n=[0]}","n(ccc1)c(c1C)C","n","25.0","?C","","-","HPYNZHMRTTWQTB-UHFFFAOYSA"
"CC1=CC=NC(C)=C1","-","R946103","M5390","-","-","2,4-dimethylpyridine","-","Koerner","charochkina","A5793","-","-","-","6.7","Log unit","6.7","Log unit","n1ccc(C)cc1C","0","","{n=[0]}","n(ccc1C)c(c1)C","n","25.0","?C","","-","JYYNAJVZFGKDEQ-UHFFFAOYSA"
"CC1=CC=C(C)N=C1","-","R946104","M13285","-","-","2,5-dimethylpyridine","-","Koerner","charochkina","A5793","-","-","-","6.435","Log unit","6.435","Log unit","n1cc(ccc1C)C","0","","{n=[0]}","n(cc(c1)C)c(c1)C","n","25.0","?C","","-","XWKFPIODWVPXLX-UHFFFAOYSA"
"CC1=CC=CC(C)=N1","-","R946105","M7967","-","-","2,6-dimethylpyridine","-","Koerner","charochkina","A5793","-","-","-","6.705","Log unit","6.705","Log unit","n1c(cccc1C)C","0","","{n=[0]}","n(c(cc1)C)c(c1)C","n","25.0","?C","","-","OISVCGZHLKNMSJ-UHFFFAOYSA"
"CC1=C(C)C=NC=C1","-","R946106","M7609","-","-","3,4-dimethylpyridine","-","Koerner","charochkina","A5793","-","-","-","6.42","Log unit","6.42","Log unit","n1cc(C)c(C)cc1","0","","{n=[0]}","n1cc(C)c(C)cc1","n","25.0","?C","","-","NURQLCJSMXZBPC-UHFFFAOYSA"
"CC1=CC(C)=CN=C1","-","R946107","M4166","-","-","3,5-dimethylpyridine","-","Koerner","charochkina","A5793","-","-","-","6.15","Log unit","6.15","Log unit","n1cc(C)cc(C)c1","0","","{n=[0]}","n1cc(C)cc(C)c1","n","25.0","?C","","-","HWWYDZCSSYKIAD-UHFFFAOYSA"
"CN(C)C1=CC=NC=C1","-","R946108","M24652","-","-","4-DIMETHYLAMINOPYRIDINE","-","Koerner","charochkina","A5793","-","-","-","9.7","Log unit","9.7","Log unit","n1ccc(N(C)C)cc1","0","","{n=[0], nr2=[4]}","n(ccc1N(C)C)cc1","n","25.0","?C","","-","VHYFNPMBLIVWCW-UHFFFAOYSA"
"CN(C)CCC1=CC=CC=N1","-","R946109","M2988","-","-","2-(dimethylaminoethyl)-pyridine","-","Koerner","charochkina","A5793","-","-","-","8.75","Log unit","8.75","Log unit","N(CCc1ncccc1)(C)C","8","","{n=[0], nr2=[8]}","n(ccc1)c(c1)CCN(C)C","nr2","25.0","?C","","-","FXHJGPDCPMCUKW-UHFFFAOYSA"
"CN(C)CCC1=CN=CC=C1","-","R946110","M34924","-","-","3-(dimethylaminoethyl)-pyridine","-","Koerner","charochkina","A5793","-","-","-","8.86","Log unit","8.86","Log unit","N(CCc1cnccc1)(C)C","8","","{n=[0], nr2=[8]}","n(ccc1)cc1CCN(C)C","nr2","25.0","?C","","-","DZOSVKUXMNMXTK-UHFFFAOYSA"
"C[NH+](C)CCC1=CN=CC=C1","-","R946111","M34924","-","-","3-(dimethylaminoethyl)-pyridine","-","Koerner","charochkina","A5793","-","-","-","4.3","Log unit","4.3","Log unit","n1cccc(c1)CC[NH+](C)C","0","","{n=[0], nr2=[8]}","n(ccc1)cc1CC[N+1](C)C","n","25.0","?C","","-","DZOSVKUXMNMXTK-UHFFFAOYSA"
"CCC1=CN=CC=C1N(C)C","-","R946112","M1106753","-","-","4-dimethylamino-3-ethylpyridine","-","Koerner","charochkina","A5793","-","-","-","8.67","Log unit","8.67","Log unit","n1ccc(N(C)C)c(c1)CC","0","","{n=[0], nr2=[4]}","n(ccc1N(C)C)cc1CC","n","25.0","?C","","-","FNRBJMADWMWFMZ-UHFFFAOYSA"
"CN(C)CCC1=CC=NC=C1","-","R946113","M41608","-","-","4-(DIMETHYLAMINOETHYL)PYRIDINE","-","Koerner","charochkina","A5793","-","-","-","8.7","Log unit","8.7","Log unit","N(CCc1ccncc1)(C)C","6","","{n=[0], nr2=[6]}","n(ccc1CCN(C)C)cc1","nr2","25.0","?C","","-","YVXKZGLIZHUYBK-UHFFFAOYSA"
"C[NH+](C)CCC1=CC=NC=C1","-","R946114","M41608","-","-","4-(DIMETHYLAMINOETHYL)PYRIDINE","-","Koerner","charochkina","A5793","-","-","-","4.66","Log unit","4.66","Log unit","n1ccc(CC[NH+](C)C)cc1","0","","{n=[0], nr2=[6]}","n(ccc1CC[N+1](C)C)cc1","n","25.0","?C","","-","YVXKZGLIZHUYBK-UHFFFAOYSA"
"CN(C)CCC(C1=CC=CC=C1)C1=CC=CC=N1","-","R946115","M4433","-","-","2[alpha-(2-dimethylaminoethyl)benzyl]-pyridine","-","Koerner","charochkina","A5793","-","-","-","9.26","Log unit","9.26","Log unit","N(CCC(c1ncccc1)c1ccccc1)(C)C","15","","{n=[0], nr2=[15]}","n(ccc1)c(c1)C(c(ccc2)cc2)CCN(C)C","nr2","25.0","?C","","-","IJHNSHDBIRRJRN-UHFFFAOYSA"
"COC1=CC=C(CN(CC[NH+](C)C)C2=CC=CC=N2)C=C1","-","R946116","M13468","-","-","2-[(2-dimethylaminoethyl)(p-methoxybenzyl)amino]-pyridine","-","Koerner","charochkina","A5793","-","-","-","4.02","Log unit","4.02","Log unit","n1ccccc1N(Cc1ccc(OC)cc1)CC[NH+](C)C","0","","{n=[0], nr2=[6, 18]}","n(ccc1)c(c1)N(Cc(ccc2OC)cc2)CC[N+1](C)C","n","25.0","?C","","-","YECBIJXISLIIDS-UHFFFAOYSA"
"C[NH+](C)CCN(CC1=CC=CS1)C1=NC=CC=C1","-","R946117","M3946","-","-","2-[(2-dimethylaminoethyl)-2-thienylamino]-pyridine","-","Koerner","charochkina","A5793","-","-","-","3.66","Log unit","3.66","Log unit","n1c(N(Cc2sccc2)CC[NH+](C)C)cccc1","8","","{n=[8], nr2=[6, 15]}","S(C=C1)C(=C1)CN(c(ncc2)cc2)CC[N+1](C)C","n","25.0","?C","","-","HNJJXZKZRAWDPF-UHFFFAOYSA"