"SMILES","CASRN","RECORDID","MOLECULEID","EXTERNALID","N","NAME","NAME","INTRODUCER","MODIFIER","ARTICLEID","PUBMEDID","PAGE","TABLE","pKa (smiles as ob. cond.) {measured}","UNIT {pKa (smiles as ob. cond.)}","pKa (smiles as ob. cond.) {measured, converted}","UNIT {pKa (smiles as ob. cond.)}","Ionizable centre (smiles)","IC group detected","AtomNR of IC","groupsAndICs","IC smiles given","IC group given","Temperature","UNIT {Temperature}","MultiGroupDetection","COMMENTS","INCHI_KEY"
"OC1=C2C=CC=CC2=CN=C1","-","R946384","M1106869","-","-","4-hydroxyisoquinoline","-","Koerner","charochkina","A5793","-","-","-","4.74","Log unit","4.74","Log unit","n1cc(O)c2ccccc2c1","0","","{n=[0], oh=[3]}","n(cc(O)c1cc2)cc1cc2","n","25.0","?C","","-","DXTUTXYCHFWRQC-UHFFFAOYSA"
"OC1=CC=CC2=CN=CC=C12","-","R946385","M71275","-","-","5-Hydroxyisoquinoline","-","Koerner","charochkina","A5793","-","-","-","5.38","Log unit","5.38","Log unit","n1ccc2c(cccc2c1)O","0","","{n=[0], oh=[6]}","n(ccc1c(c2)O)cc1cc2","n","25.0","?C","","-","CSNXUYRHPXGSJD-UHFFFAOYSA"
"OC1=CC2=C(C=C1)C=NC=C2","-","R946386","M988902","-","-","6-hydroxy-isoquinoline","-","Koerner","charochkina","A5793","-","-","-","5.83","Log unit","5.83","Log unit","n1cc2ccc(O)cc2cc1","4","","{n=[4], oh=[9]}","c(cc(cnc1)c2c1)c(O)c2","n","25.0","?C","","-","GPVPDRHTRGTSIH-UHFFFAOYSA"
"OC1=CC2=C(C=C1)C=NC=C2","-","R946387","M988902","-","-","6-hydroxy-isoquinoline","-","Koerner","charochkina","A5793","-","-","-","9.17","Log unit","9.17","Log unit","Oc1ccc2cnccc2c1","9","","{n=[4], oh=[9]}","c(cc(cnc1)c2c1)c(O)c2","oh","25.0","?C","","-","GPVPDRHTRGTSIH-UHFFFAOYSA"
"OC1=CC2=CN=CC=C2C=C1","-","R946388","M775562","-","-","7-hydroxyisoquinoline","-","Koerner","charochkina","A5793","-","-","-","5.68","Log unit","5.68","Log unit","n1ccc2ccc(cc2c1)O","0","","{n=[0], oh=[10]}","n(ccc1cc2)cc1cc2O","n","25.0","?C","","-","WCRKBMABEPCYII-UHFFFAOYSA"
"OC1=CC=CC2=CC=NC=C12","-","R946389","M1106870","-","-","8-hydroxyisoquinoline","-","Koerner","charochkina","A5793","-","-","-","5.64","Log unit","5.64","Log unit","n1ccc2cccc(c2c1)O","0","","{n=[0], oh=[10]}","n(ccc1cc2)cc1c(c2)O","n","25.0","?C","","-","ZIXWTPREILQLAC-UHFFFAOYSA"
"SC1[NH2+]CCC2CCCCC12","-","R946390","M1107301","-","-","1-mercaptoisoquinoline","-","Koerner","charochkina","A5793","-","-","-","-1.9","Log unit","-1.9","Log unit","SC1[NH2+][CH][CH]C2C1[CH][CH][CH][CH]2","0","","{sh=[0]}","S-c([n+1]cc1)c(ccc2)c1c2","sh","25.0","?C","","-","FCQGSZAOWAMHSM-UHFFFAOYSA"
"[S-]C1=NC=CC2=C1C=CC=C2","-","R946391","M1106871","-","-","1-mercaptoisoquinoline","-","Koerner","charochkina","A5793","-","-","-","10.86","Log unit","10.86","Log unit","n1c([S-])c2ccccc2cc1","2","","{n=[2]}","[S-1]-c(ncc1)c(ccc2)c1c2","n","25.0","?C","","-","IOYIDSMWPLNHRC-UHFFFAOYSA"
"SC1CC2CCCCC2C[NH2+]1","-","R946392","M1107302","-","-","3-mercaptoisoquinoline","-","Koerner","charochkina","A5793","-","-","-","0.39","Log unit","0.39","Log unit","SC1[NH2+][CH]C2[CH][CH][CH][CH]C2[CH]1","0","","{sh=[0]}","S-c([n+1]cc1cc2)cc1cc2","sh","25.0","?C","","-","ZIIMLGFPTOXJEI-UHFFFAOYSA"
"[S-]C1=NC=C2C=CC=CC2=C1","-","R946393","M1106872","-","-","3-mercaptoisoquinoline","-","Koerner","charochkina","A5793","-","-","-","8.62","Log unit","8.62","Log unit","n1c([S-])cc2c(c1)cccc2","2","","{n=[2]}","[S-1]-c(ncc1cc2)cc1cc2","n","25.0","?C","","-","WRIZFUVYABPOLN-UHFFFAOYSA"
"COC1=NC=CC2=CC=CC=C12","-","R946394","M1106873","-","-","1-methoxyisoquinoline","-","Koerner","charochkina","A5793","-","-","-","3.01","Log unit","3.01","Log unit","n1c(c2ccccc2cc1)OC","5","","{n=[5]}","c(ccc1c(n2)OC)cc1cc2","n","25.0","?C","","-","AFWHVAFMAIDVTH-UHFFFAOYSA"
"CC1=CC2=CC=CC=C2C=N1","-","R946395","M2964","-","-","3-Methylisoquinoline","-","Koerner","charochkina","A5793","-","-","-","5.64","Log unit","5.64","Log unit","n1cc2ccccc2cc1C","5","","{n=[5]}","c(ccc1cn2)cc1cc2C","n","25.0","?C","","-","FVVXWRGARUACNW-UHFFFAOYSA"
"CSC1=NC=CC2=C1C=CC=C2","-","R946396","M1106874","-","-","1-methylthioisoquinoline","-","Koerner","charochkina","A5793","-","-","-","3.89","Log unit","3.89","Log unit","n1c(SC)c2ccccc2cc1","3","","{n=[3]}","S(C)-c(ncc1)c(ccc2)c1c2","n","25.0","?C","","-","JXBLZDYHEXHSLA-UHFFFAOYSA"
"CSC1=NC=C2C=CC=CC2=C1","-","R946397","M1106875","-","-","3-methylthioisoquinoline","-","Koerner","charochkina","A5793","-","-","-","3.37","Log unit","3.37","Log unit","n1c(SC)cc2c(c1)cccc2","3","","{n=[3]}","S(C)-c(ncc1cc2)cc1cc2","n","25.0","?C","","-","SNRLRUIFMJGALU-UHFFFAOYSA"
"O=N(=O)C1=CN=CC2=CC=CC=C12","-","R946398","M1106876","-","-","4-nitroisoquinoline","-","Koerner","charochkina","A5793","-","-","-","1.35","Log unit","1.35","Log unit","n1cc2ccccc2c(c1)N(=O)=O","5","","{n=[5], nr2=[10]}","c(ccc1cn2)cc1c(c2)N(=O)=O","n","25.0","?C","","-","ZSKGNSYZTHMDSD-UHFFFAOYSA"
"O=N(=O)C1=CC=CC2=CN=CC=C12","-","R946399","M22334","-","-","5-Nitroisoquinoline","-","Koerner","charochkina","A5793","-","-","-","3.49","Log unit","3.49","Log unit","n1ccc2c(cccc2c1)N(=O)=O","0","","{n=[0], nr2=[6]}","n(ccc1c(c2)N(=O)=O)cc1cc2","n","25.0","?C","","-","PYGMPFQCCWBTJQ-UHFFFAOYSA"
"O=N(=O)C1=CC2=C(C=C1)C=NC=C2","-","R946400","M1106877","-","-","6-nitro-isoquinoline","-","Koerner","charochkina","A5793","-","-","-","3.43","Log unit","3.43","Log unit","n1cc2ccc(cc2cc1)N(=O)=O","4","","{n=[4], nr2=[10]}","c(cc(cnc1)c2c1)c(c2)N(=O)=O","n","25.0","?C","","-","TWQCVIUEUQDOEH-UHFFFAOYSA"
"O=N(=O)C1=CC2=C(C=CN=C2)C=C1","-","R946401","M1106878","-","-","7-nitro-isoquinoline","-","Koerner","charochkina","A5793","-","-","-","3.57","Log unit","3.57","Log unit","n1ccc2ccc(cc2c1)N(=O)=O","5","","{n=[5], nr2=[10]}","c(cc(ccn1)c2c1)c(c2)N(=O)=O","n","25.0","?C","","-","NYHHIPIPUVLUFF-UHFFFAOYSA"
"O=N(=O)C1=CC=CC2=CC=NC=C12","-","R946402","M1106879","-","-","8-nitroisoquinoline","-","Koerner","charochkina","A5793","-","-","-","3.55","Log unit","3.55","Log unit","n1ccc2cccc(c2c1)N(=O)=O","0","","{n=[0], nr2=[10]}","n(ccc1cc2)cc1c(c2)N(=O)=O","n","25.0","?C","","-","SUXMGKFFQJTYEX-UHFFFAOYSA"
"C1=CC2=C(C=C1)N=CC=C2","-","R946403","M10490","-","-","Quinoline","-","Koerner","charochkina","A5793","-","-","-","4.925","Log unit","4.925","Log unit","n1cccc2c1cccc2","0","","{n=[0]}","n(ccc1)c(ccc2)c1c2","n","25.0","?C","","-","SMWDFEZZVXVKRB-UHFFFAOYSA"
"CS(=O)(=O)C1=NC=CC2=C1C=CC=C2","-","R946404","M1106880","-","-","1-methylsulphonylisoquinoline","-","Koerner","charochkina","A5793","-","-","-","-0.83","Log unit","-0.83","Log unit","n1c(S(=O)(=O)C)c2ccccc2cc1","5","","{n=[5]}","S(=O)(=O)(C)-c(ncc1)c(ccc2)c1c2","n","25.0","?C","","-","VSYAIJANWKDHIV-UHFFFAOYSA"
"CC(=O)C1=CC=C(O)C2=C1C=CC=N2","-","R946405","M49651","-","-","5-acetyl-8-hydroxyquinoline","-","Koerner","charochkina","A5793","-","-","-","4.385","Log unit","4.385","Log unit","n1cccc2c1c(ccc2C(=O)C)O","0","","{n=[0], oh=[8]}","n(ccc1)c(c(cc2)O)c1c2C(=O)C","n","25.0","?C","","-","HZTCLDNADGMACV-UHFFFAOYSA"
"CC(=O)C1=CC=C(O)C2=C1C=CC=N2","-","R946406","M49651","-","-","5-acetyl-8-hydroxyquinoline","-","Koerner","charochkina","A5793","-","-","-","8.2","Log unit","8.2","Log unit","Oc1c2ncccc2c(cc1)C(=O)C","8","","{n=[0], oh=[8]}","n(ccc1)c(c(cc2)O)c1c2C(=O)C","oh","25.0","?C","","-","HZTCLDNADGMACV-UHFFFAOYSA"
"NC1=NC2=C(C=CC=C2)C=C1","-","R946407","M3092","-","-","2-aminoquinoline","-","Koerner","charochkina","A5793","-","-","-","7.17","Log unit","7.17","Log unit","n1c(ccc2c1cccc2)N","0","","{n=[0], nr2=[4]}","n(c(cc1)N)c(ccc2)c1c2","n","25.0","?C","","-","GCMNJUJAKQGROZ-UHFFFAOYSA"
"NC1=CC2=C(C=CC=C2)N=C1","-","R946408","M10697","-","-","3-aminoquinoline","-","Koerner","charochkina","A5793","-","-","-","4.91","Log unit","4.91","Log unit","n1cc(cc2c1cccc2)N","0","","{n=[0], nr2=[4]}","n(cc(c1)N)c(ccc2)c1c2","n","25.0","?C","","-","SVNCRRZKBNSMIV-UHFFFAOYSA"
"NC1=CC=NC2=C1C=CC=C2","-","R946409","M2842","-","-","4-aminoquinoline","-","Koerner","charochkina","A5793","-","-","-","9.13","Log unit","9.13","Log unit","n1ccc(N)c2c1cccc2","0","","{n=[0], nr2=[4]}","n(ccc1N)c(ccc2)c1c2","n","25.0","?C","","-","FQYRLEXKXQRZDH-UHFFFAOYSA"
"NC1=CC=CC2=C1C=CC=N2","-","R946410","M13057","-","-","5-Aminoquinoline","-","Koerner","charochkina","A5793","-","-","-","5.345","Log unit","5.345","Log unit","n1cccc2c1cccc2N","0","","{n=[0], nr2=[10]}","n(ccc1)c(ccc2)c1c2N","n","25.0","?C","","-","XMIAFAKRAAMSGX-UHFFFAOYSA"
"NC1=CC2=C(C=C1)N=CC=C2","-","R946411","M9793","-","-","6-Aminoquinoline","-","Koerner","charochkina","A5793","-","-","-","5.52","Log unit","5.52","Log unit","n1cccc2c1ccc(N)c2","0","","{n=[0], nr2=[8]}","n(ccc1)c(ccc2N)c1c2","n","25.0","?C","","-","RJSRSRITMWVIQT-UHFFFAOYSA"
"NC1=CC2=C(C=CC=N2)C=C1","-","R946412","M120613","-","-","7-Aminoquinoline","-","Koerner","charochkina","A5793","-","-","-","6.61","Log unit","6.61","Log unit","n1cccc2c1cc(cc2)N","0","","{n=[0], nr2=[8]}","n(ccc1)c(cc(c2)N)c1c2","n","25.0","?C","","-","RZAUIOKDXQWSQE-UHFFFAOYSA"
"NC1=CC=CC2=C1N=CC=C2","-","R946413","M12544","-","-","8-Aminoquinoline","-","Koerner","charochkina","A5793","-","-","-","4.0","Log unit","4.0","Log unit","n1cccc2c1c(ccc2)N","0","","{n=[0], nr2=[8]}","n(ccc1)c(c(cc2)N)c1c2","n","25.0","?C","","-","WREVVZMUNPAPOV-UHFFFAOYSA"
"NC1=CC=NC2=CC(Cl)=CC=C12","-","R946414","M108546","-","-","4-AMINO-7-CHLOROQUINOLINE","-","Koerner","charochkina","A5793","-","-","-","8.23","Log unit","8.23","Log unit","n1c2cc(Cl)ccc2c(cc1)N","10","","{n=[10], nr2=[7]}","Cl-c(ccc1c(c2)N)cc1nc2","n","25.0","?C","","-","NDRZSRWMMUGOBP-UHFFFAOYSA"
"NC1=CC=NC2=C1C=CC=C2O","-","R946415","M1107303","-","-","4-amino-8-hydroxyquinoline","-","Koerner","charochkina","A5793","-","-","-","10.71","Log unit","10.71","Log unit","Oc1c2nccc(N)c2ccc1","9","","{n=[0], nr2=[4], oh=[9]}","n(ccc1N)c(c(cc2)O)c1c2","oh","25.0","?C","","-","BSAWDWUYBRFYFY-UHFFFAOYSA"
"NC1=CC=C(O)C2=C1C=CC=N2","-","R946416","M32813","-","-","5-amino-8-hydroxyquinoline","-","Koerner","charochkina","A5793","-","-","-","5.67","Log unit","5.67","Log unit","n1cccc2c1c(ccc2N)O","0","","{n=[0], nr2=[11], oh=[8]}","n(ccc1)c(c(cc2)O)c1c2N","n","25.0","?C","","-","YDEUKNRKEYICTH-UHFFFAOYSA"
"COC1=CC2=C(C=C1)N=CC=C2N","-","R946417","M1106881","-","-","4-amino-6-methoxyquinoline","-","Koerner","charochkina","A5793","-","-","-","8.93","Log unit","8.93","Log unit","n1ccc(N)c2c1ccc(OC)c2","0","","{n=[0], nr2=[4]}","n(ccc1N)c(ccc2OC)c1c2","n","25.0","?C","","-","PHGNGVYUHOARGF-UHFFFAOYSA"
"CC1=NC2=CC=CC=C2C(N)=C1","-","R946418","M31357","-","-","4-Amino-2-methylquinoline","-","Koerner","charochkina","A5793","-","-","-","9.42","Log unit","9.42","Log unit","n1c2ccccc2c(cc1C)N","9","","{n=[9], nr2=[6]}","c(ccc1c(c2)N)cc1nc2C","n","25.0","?C","","-","COCFIBRMFPWUDW-UHFFFAOYSA"
"CC1=CC2=C(N=C(C)C=C2N)C(C)=C1","-","R946419","M1106882","-","-","4-amino-2,6,8-trimethylquinoline","-","Koerner","charochkina","A5793","-","-","-","10.4","Log unit","10.4","Log unit","n1c(cc(N)c2c1c(cc(C)c2)C)C","0","","{n=[0], nr2=[4]}","n(c(cc1N)C)c(c(cc2C)C)c1c2","n","25.0","?C","","-","SLSWQXZTEPDTDH-UHFFFAOYSA"
"BrC1=NC2=C(C=CC=C2)C=C1","-","R946420","M1106883","-","-","2-bromoquinoline","-","Koerner","charochkina","A5793","-","-","-","1.05","Log unit","1.05","Log unit","n1c(Br)ccc2c1cccc2","2","","{n=[2]}","Br-c(nc(ccc1)c2c1)cc2","n","25.0","?C","","-","QKJAZPHKNWSXDF-UHFFFAOYSA"
"BrC1=CN=C2C=CC=CC2=C1","-","R946421","M14106","-","-","3-Bromoquinoline","-","Koerner","charochkina","A5793","-","-","-","2.72","Log unit","2.72","Log unit","n1cc(Br)cc2c1cccc2","3","","{n=[3]}","Br-c(cnc1cc2)cc1cc2","n","25.0","?C","","-","ZGIKWINFUGEQEO-UHFFFAOYSA"
"BrC1=CC=CC2=C1C=CC=N2","-","R946422","M1106884","-","-","5-bromoquinoline","-","Koerner","charochkina","A5793","-","-","-","3.62","Log unit","3.62","Log unit","n1c2c(c(Br)ccc2)ccc1","10","","{n=[10]}","Br-c(ccc1)c(ccc2)c1n2","n","25.0","?C","","-","CHODTZCXWXCALP-UHFFFAOYSA"
"BrC1=CC=C2N=CC=CC2=C1","-","R946423","M4364","-","-","6-Bromoquinoline","-","Koerner","charochkina","A5793","-","-","-","3.91","Log unit","3.91","Log unit","n1c2ccc(Br)cc2ccc1","5","","{n=[5]}","Br-c(ccc1nc2)cc1cc2","n","25.0","?C","","-","IFIHYLCUKYCKRH-UHFFFAOYSA"
"BrC1=CC=C2C=CC=NC2=C1","-","R946424","M13324","-","-","7-Bromoquinoline","-","Koerner","charochkina","A5793","-","-","-","3.87","Log unit","3.87","Log unit","n1c2cc(Br)ccc2ccc1","9","","{n=[9]}","Br-c(ccc1cc2)cc1nc2","n","25.0","?C","","-","XYBSZCUHOLWQQU-UHFFFAOYSA"
"BrC1=CC=CC2=C1N=CC=C2","-","R946425","M746953","-","-","8-Bromoquinoline","-","Koerner","charochkina","A5793","-","-","-","3.13","Log unit","3.13","Log unit","n1c2c(Br)cccc2ccc1","6","","{n=[6]}","Br-c(ccc1)c(ncc2)c1c2","n","25.0","?C","","-","PIWNKSHCLTZKSZ-UHFFFAOYSA"
"ClC1=CC=NC2=CC=C(Br)C=C12","-","R946426","M1106885","-","-","6-bromo-4-chloroquinoline","-","Koerner","charochkina","A5793","-","-","-","2.83","Log unit","2.83","Log unit","n1c2ccc(Br)cc2c(Cl)cc1","5","","{n=[5]}","Br-c(ccc1nc2)cc1c(Cl)c2","n","25.0","?C","","-","KJILYZMXTLCPDQ-UHFFFAOYSA"
"ClC1=CC=NC2=CC(Br)=CC=C12","-","R946427","M1106886","-","-","7-bromo-4-chloroquinoline","-","Koerner","charochkina","A5793","-","-","-","2.83","Log unit","2.83","Log unit","n1c2cc(Br)ccc2c(Cl)cc1","10","","{n=[10]}","Br-c(ccc1c(Cl)c2)cc1nc2","n","25.0","?C","","-","JJUTYYVZDKDLBC-UHFFFAOYSA"
"CS(=O)(=O)C1=CC=NC=C1","-","R946228","M1106789","-","-","4-methylsulphonylpyridine","-","Koerner","charochkina","A5793","-","-","-","1.62","Log unit","1.62","Log unit","n1ccc(S(=O)(=O)C)cc1","7","","{n=[7]}","S(=O)(=O)(C)-c(ccn1)cc1","n","25.0","?C","","-","QVHPIEJTHBPITM-UHFFFAOYSA"
"CSC1=NC=CC=C1","-","R946229","M34447","-","-","2-METHYLTHIOPYRIDINE","-","Koerner","charochkina","A5793","-","-","-","3.59","Log unit","3.59","Log unit","n1c(SC)cccc1","3","","{n=[3]}","S(C)-c(ncc1)cc1","n","25.0","?C","","-","VLQBSKLZRSUMTJ-UHFFFAOYSA"
"CSC1=CN=CC=C1","-","R946230","M124458","-","-","3-METHYLTHIOPYRIDINE","-","Koerner","charochkina","A5793","-","-","-","4.42","Log unit","4.42","Log unit","n1cc(SC)ccc1","4","","{n=[4]}","S(C)-c(cnc1)cc1","n","25.0","?C","","-","AULOGPOZBOCNSX-UHFFFAOYSA"
"CSC1=CC=NC=C1","-","R946231","M124471","-","-","4-METHYLTHIOPYRIDINE","-","Koerner","charochkina","A5793","-","-","-","5.94","Log unit","5.94","Log unit","n1ccc(SC)cc1","5","","{n=[5]}","S(C)-c(ccn1)cc1","n","25.0","?C","","-","XCHSSZMKKXPBAI-UHFFFAOYSA"
"CC1=CC=C(C=C)C=N1","-","R946232","M19536","-","-","2-METHYL-5-VINYLPYRIDINE","-","Koerner","charochkina","A5793","-","-","-","5.67","Log unit","5.67","Log unit","n1cc(ccc1C)C=C","0","","{n=[0]}","n(cc(c1)C=C)c(c1)C","n","25.0","?C","","-","VJOWMORERYNYON-UHFFFAOYSA"
"CSCC1=NC=CC=C1","-","R946233","M1106790","-","-","2-methylthiomethylpyridine","-","Koerner","charochkina","A5793","-","-","-","4.64","Log unit","4.64","Log unit","n1c(CSC)cccc1","4","","{n=[4]}","S(C)C-c(ncc1)cc1","n","25.0","?C","","-","KWXDPVBKJYKQIM-UHFFFAOYSA"
"CSC1=NC=C(C=C1)N(=O)=O","-","R946234","M1106791","-","-","2-methylthio-5-nitropyridine","-","Koerner","charochkina","A5793","-","-","-","-0.29","Log unit","-0.29","Log unit","n1c(SC)ccc(c1)N(=O)=O","3","","{n=[3], nr2=[6]}","S(C)-c(ncc1N(=O)=O)cc1","n","25.0","?C","","-","SUATXLIQPPUGPW-UHFFFAOYSA"
"O=N(=O)C1=CN=CC=C1","-","R946235","M9228","-","-","3-Nitropyridine","-","Koerner","charochkina","A5793","-","-","-","1.18","Log unit","1.18","Log unit","n1cccc(c1)N(=O)=O","0","","{n=[0], nr2=[6]}","n(ccc1)cc1N(=O)=O","n","25.0","?C","","-","QLILRKBRWXALIE-UHFFFAOYSA"
"O=N(=O)C1=CC(=CC=C1)C1=CC=CC=N1","-","R946236","M1106792","-","-","2-meta-nitrophenylpyridine","-","Koerner","charochkina","A5793","-","-","-","3.55","Log unit","3.55","Log unit","n1ccccc1c1cccc(c1)N(=O)=O","0","","{n=[0], nr2=[12]}","n(ccc1)c(c1)-c(ccc2)cc2N(=O)=O","n","25.0","?C","","-","OHEKHNZMCAMZNU-UHFFFAOYSA"
"O=N(=O)C1=CC=C(C=C1)C1=CC=CC=N1","-","R946237","M1106793","-","-","2-para-nitrophenylpyridine","-","Koerner","charochkina","A5793","-","-","-","3.63","Log unit","3.63","Log unit","n1ccccc1c1ccc(N(=O)=O)cc1","0","","{n=[0], nr2=[10]}","n(ccc1)c(c1)-c(ccc2N(=O)=O)cc2","n","25.0","?C","","-","FNLTWLXKZQWUJZ-UHFFFAOYSA"
"OC(=O)C1C([NH2+]C(C(C1C([O-])=O)C(O)=O)C([O-])=O)C([O-])=O","-","R946238","M1107288","-","-","pentacarboxypyridine","-","Koerner","charochkina","A5793","-","-","-","3.76","Log unit","3.76","Log unit","OC(=O)C1C([NH2+]C(C(C1C(=O)[O-])C(=O)O)C(=O)[O-])C(=O)[O-]","8","","{co2h=[8, 16]}","[n+1]1c(C(=O)[O-1])c(C(=O)O)c(C(=O)[O-1])c(C(=O)O)c1C(=O)[O-1]","co2h","25.0","?C","true","-","MSQJLXJJZKRYTO-UHFFFAOYSA"
"OC(=O)C1=C(N=C(C([O-])=O)C(C([O-])=O)=C1C([O-])=O)C([O-])=O","-","R946239","M1107289","-","-","pentacarboxypyridine","-","Koerner","charochkina","A5793","-","-","-","4.61","Log unit","4.61","Log unit","OC(=O)c1c(c(c(nc1C(=O)[O-])C(=O)[O-])C(=O)[O-])C(=O)[O-]","16","","{co2h=[16], n=[0]}","n1c(C(=O)[O-1])c(C(=O)[O-1])c(C(=O)[O-1])c(C(=O)O)c1C(=O)[O-1]","co2h","25.0","?C","","-","GHADIPDSBPQFIC-UHFFFAOYSA"
"CC(=O)C1=CC=C(C=C1)C1=NC=CC=C1","-","R946240","M1106794","-","-","2-phenacylpyridine","-","Koerner","charochkina","A5793","-","-","-","5.0","Log unit","5.0","Log unit","n1c(c2ccc(C(=O)C)cc2)cccc1","0","","{n=[0]}","n1c(c2ccc(C(=O)C)cc2)cccc1","n","25.0","?C","","-","XZDWLOSWXCFTNO-UHFFFAOYSA"
"CC(=O)C1=CC=C(C=C1)C1=CC=CN=C1","-","R946241","M1106795","-","-","3-phenacylpyridine","-","Koerner","charochkina","A5793","-","-","-","4.87","Log unit","4.87","Log unit","n1cc(c2ccc(C(=O)C)cc2)ccc1","0","","{n=[0]}","n1cc(c2ccc(C(=O)C)cc2)ccc1","n","25.0","?C","","-","YDAFIGBEEBFUKV-UHFFFAOYSA"
"CC(=O)C1=CC=C(C=C1)C1=CC=NC=C1","-","R946242","M1106796","-","-","4-phenacylpyridine","-","Koerner","charochkina","A5793","-","-","-","4.93","Log unit","4.93","Log unit","n1ccc(c2ccc(C(=O)C)cc2)cc1","0","","{n=[0]}","n1ccc(c2ccc(C(=O)C)cc2)cc1","n","25.0","?C","","-","LCQWVYDFAHJHLM-UHFFFAOYSA"
"CCCCCC1=CC=CC=N1","-","R946243","M71008","-","-","2-PENTYLPYRIDINE","-","Koerner","charochkina","A5793","-","-","-","6.0","Log unit","6.0","Log unit","n1ccccc1CCCCC","0","","{n=[0]}","n(ccc1)c(c1)CCCCC","n","25.0","?C","","-","HSDXVAOHEOSTFZ-UHFFFAOYSA"
"C1=CC=C(C=C1)C1=CC=CC=N1","-","R946244","M11901","-","-","2-Phenylpyridine","-","Koerner","charochkina","A5793","-","-","-","4.48","Log unit","4.48","Log unit","n1ccccc1c1ccccc1","0","","{n=[0]}","n(ccc1)c(c1)-c(ccc2)cc2","n","25.0","?C","","-","VQGHOUODWALEFC-UHFFFAOYSA"
"O=S(=O)(CC1=NC=CC=C1)C1=CC=CC=C1","-","R946245","M1106797","-","-","2-phenylsulphonylmethylpyridine","-","Koerner","charochkina","A5793","-","-","-","2.54","Log unit","2.54","Log unit","n1c(CS(=O)(=O)c2ccccc2)cccc1","0","","{n=[0]}","n1c(CS(=O)(=O)c2ccccc2)cccc1","n","25.0","?C","","-","PPFKQEVWJGRSJC-UHFFFAOYSA"
"O=S(=O)(CC1=CN=CC=C1)C1=CC=CC=C1","-","R946246","M855796","-","-","3-phenylsulphonylmethylpyridine","-","Koerner","charochkina","A5793","-","-","-","3.67","Log unit","3.67","Log unit","n1cccc(c1)CS(=O)(=O)c1ccccc1","0","","{n=[0]}","n(ccc1)cc1CS(=O)(=O)-c(ccc2)cc2","n","25.0","?C","","-","NYANCYPJKOOJRB-UHFFFAOYSA"
"O=S(=O)(CC1=CC=NC=C1)C1=CC=CC=C1","-","R946247","M1106798","-","-","4-phenylsulphonylmethylpyridine","-","Koerner","charochkina","A5793","-","-","-","3.75","Log unit","3.75","Log unit","n1ccc(CS(=O)(=O)c2ccccc2)cc1","0","","{n=[0]}","n(ccc1CS(=O)(=O)-c(ccc2)cc2)cc1","n","25.0","?C","","-","ICAWSHPNBFDPBV-UHFFFAOYSA"
"C1=CC=C(C=C1)N=NC1=CC=CC=N1","-","R946248","M1106799","-","-","2-phenylazopyridine","-","Koerner","charochkina","A5793","-","-","-","2.0","Log unit","2.0","Log unit","n1ccccc1N=Nc1ccccc1","0","","{n=[0]}","n(ccc1)c(c1)N=N-c(ccc2)cc2","n","25.0","?C","","-","QWLSHZKQRSNZKL-UHFFFAOYSA"
"C(CC1=CC=CC=N1)N1CCCCC1","-","R946249","M30341","-","-","2-(piperidinoethyl)pyridine","-","Koerner","charochkina","A5793","-","-","-","9.29","Log unit","9.29","Log unit","N1(CCc2ncccc2)CCCCC1","8","","{n=[0], nr2=[8]}","n(ccc1)c(c1)CCN(CCC2)CC2","nr2","25.0","?C","","-","ZOXWZYTVCGKPOX-UHFFFAOYSA"