Smiles,CASRN,Record ID,Molecule ID,External ID,N,Name,Introducer,Modifer,Article ID,PUBMED ID,PAGE,TABLE,pKa,pKa Unit,Temperature,Temperature Unit,Ionizable center smiles,IC group
OC(=O)C1=CC=NC=C1C(O)=O,-,R946077,M20812,-,-,"3,4-dicarboxypyridine",Koerner,charochkina,A5793,-,-,-,2.93,Log unit,25,?C,OC(=O)c1ccncc1C(=O)O,6
[O-]C(=O)C1=CC=NC=C1C([O-])=O,-,R946078,M20812,-,-,"3,4-dicarboxypyridine",Koerner,charochkina,A5793,-,-,-,5.07,Log unit,25,?C,n1ccc(C(=O)[O-])c(c1)C(=O)[O-],0
OC(=O)C1C[NH2+]CC(C1)C(O)=O,-,R946079,M740902,-,-,"3,5-dicarboxypyridine",Koerner,charochkina,A5793,-,-,-,1.4,Log unit,25,?C,OC(=O)C1[CH][NH2+][CH]C([CH]1)C(=O)O,6
OC(=O)C1C[NH2+]CC(C1)C([O-])=O,-,R946080,M740902,-,-,"3,5-dicarboxypyridine",Koerner,charochkina,A5793,-,-,-,2.42,Log unit,25,?C,OC(=O)C1[CH][NH2+][CH]C([CH]1)C(=O)[O-],11
OC(=O)C1CC(Cl)CC([NH2+]1)C([O-])=O,-,R946081,M1107280,-,-,"2,6-dicarboxy-4-chloropyridine",Koerner,charochkina,A5793,-,-,-,1.4,Log unit,25,?C,OC(=O)C1[CH]C(Cl)[CH]C([NH2+]1)C(=O)[O-],12
[O-]C(=O)C1=CC(Cl)=CC(=N1)C([O-])=O,-,R946082,M1106747,-,-,"2,6-dicarboxy-4-chloropyridine",Koerner,charochkina,A5793,-,-,-,3.75,Log unit,25,?C,n1c(cc(Cl)cc1C(=O)[O-])C(=O)[O-],4
CC1[NH2+]C(C)C(CC1C(O)=O)C(O)=O,-,R946083,M1107281,-,-,"3,5-dicarboxy-2,6-dimethylpyridine",Koerner,charochkina,A5793,-,-,-,2.02,Log unit,25,?C,OC(=O)C1C([NH2+]C(C)C([CH]1)C(=O)O)C,7
CC1[NH2+]C(C)C(CC1C(O)=O)C([O-])=O,-,R946084,M1107281,-,-,"3,5-dicarboxy-2,6-dimethylpyridine",Koerner,charochkina,A5793,-,-,-,2.52,Log unit,25,?C,OC(=O)C1C([NH2+]C(C)C([CH]1)C(=O)[O-])C,13
CC1=NC(C)=C(C=C1C([O-])=O)C([O-])=O,-,R946085,M27157,-,-,"3,5-dicarboxy-2,6-dimethylpyridine",Koerner,charochkina,A5793,-,-,-,6.2,Log unit,25,?C,n1c(C)c(cc(c1C)C(=O)[O-])C(=O)[O-],0
[O-]C(=O)C1=CC([O-])=CC(=N1)C([O-])=O,-,R946086,M20937,-,-,"2,6-dicarboxy-4-hydroxypyridine",Koerner,charochkina,A5793,-,-,-,10.85,Log unit,25,?C,n1c(cc([O-])cc1C(=O)[O-])C(=O)[O-],0
OC1CC([NH2+]C(C1)C([O-])=O)C([O-])=O,-,R946087,M1107282,-,-,"2,6-dicarboxy-4-hydroxypyridine",Koerner,charochkina,A5793,-,-,-,3.18,Log unit,25,?C,OC1[CH]C([NH2+]C([CH]1)C(=O)[O-])C(=O)[O-],4
OC1CC([NH2+]C(C1)C([O-])=O)C(O)=O,-,R946088,M1107282,-,-,"2,6-dicarboxy-4-hydroxypyridine",Koerner,charochkina,A5793,-,-,-,1.3,Log unit,25,?C,OC(=O)C1[NH2+]C([CH]C(O)[CH]1)C(=O)[O-],12
ClC1=CC=CN=C1Cl,-,R946089,M6607,-,-,"2,3-Dichloropyridine",Koerner,charochkina,A5793,-,-,-,-0.85,Log unit,25,?C,n1c(Cl)c(Cl)ccc1,2
ClC1=CC=CC(Cl)=N1,-,R946090,M2626,-,-,"2,6-Dichloropyridine",Koerner,charochkina,A5793,-,-,-,-2.86,Log unit,25,?C,n1c(Cl)cccc1Cl,2
ClC1=CC(Cl)=CN=C1,-,R946091,M12493,-,-,"3,5-Dichloropyridine",Koerner,charochkina,A5793,-,-,-,0.71,Log unit,25,?C,n1cc(Cl)cc(c1)Cl,3
OC1=CC(Cl)=NC(Cl)=C1,-,R946092,M1107283,-,-,"2,6-dichloro-4-hydroxypyridine",Koerner,charochkina,A5793,-,-,-,5.9,Log unit,25,?C,Oc1cc(Cl)nc(Cl)c1,8
COC1=NC=C(Cl)C=C1Cl,-,R946093,M1106748,-,-,"3,5-dichloro-2-methoxypyridine",Koerner,charochkina,A5793,-,-,-,-1.4,Log unit,25,?C,n1cc(Cl)cc(c1OC)Cl,3
COC1=C(Cl)C=NC=C1Cl,-,R946094,M1106749,-,-,"3,5-dichloro-4-methoxypyridine",Koerner,charochkina,A5793,-,-,-,1.14,Log unit,25,?C,n1cc(Cl)c(c(c1)Cl)OC,3
COC1=CC(Cl)=NC(Cl)=C1,-,R946095,M1106750,-,-,"2,6-dichloro-4-methoxypyridine",Koerner,charochkina,A5793,-,-,-,-1.36,Log unit,25,?C,n1c(Cl)cc(cc1Cl)OC,2
CCOC(=O)C1=CC(C(=O)OCC)=C(C)N=C1C,-,R946096,M738419,-,-,"3,5-diethoxycarbonyl-2,6-dimethylpyridine",Koerner,charochkina,A5793,-,-,-,2.96,Log unit,25,?C,n1c(C)c(cc(c1C)C(=O)OCC)C(=O)OCC,0
CCOC(=O)C1=C(C)C(C(=O)CC)=C(C)N=C1C,-,R946097,M1106751,-,-,"3,5-diethoxycarbonyl-2,4,6-trimethylpyridine",Koerner,charochkina,A5793,-,-,-,3.1,Log unit,25,?C,n1c(C)c(c(C)c(c1C)C(=O)CC)C(=O)OCC,0
COC1=NC(CO)=C(CO)C=C1,-,R946098,M1106752,-,-,"2,3-di(hydroxymethyl)-6-methoxypyridine",Koerner,charochkina,A5793,-,-,-,2.98,Log unit,25,?C,n1c(ccc(c1CO)CO)OC,0
O=CC1=CC=CC(C=O)=N1,-,R946099,M75449,-,-,"2,6-diformylpyridine",Koerner,charochkina,A5793,-,-,-,1.94,Log unit,25,?C,n1c(cccc1C=O)C=O,0
COC1=CC=CC(OC)=N1,-,R946100,M30989,-,-,"2,6-Dimethoxypyridine",Koerner,charochkina,A5793,-,-,-,1.6,Log unit,25,?C,n1c(cccc1OC)OC,0
COC(=O)C1=C(N=CC=C1)C(=O)OC,-,R946101,M111183,-,-,"2,3-di(methoxycarbonyl)pyridine",Koerner,charochkina,A5793,-,-,-,-0.15,Log unit,25,?C,n1cccc(c1C(=O)OC)C(=O)OC,0
CC1=C(C)N=CC=C1,-,R946102,M3998,-,-,"2,3-dimethylpyridine",Koerner,charochkina,A5793,-,-,-,6.585,Log unit,25,?C,n1cccc(c1C)C,0
CC1=CC=NC(C)=C1,-,R946103,M5390,-,-,"2,4-dimethylpyridine",Koerner,charochkina,A5793,-,-,-,6.7,Log unit,25,?C,n1ccc(C)cc1C,0
CC1=CC=C(C)N=C1,-,R946104,M13285,-,-,"2,5-dimethylpyridine",Koerner,charochkina,A5793,-,-,-,6.435,Log unit,25,?C,n1cc(ccc1C)C,0
CC1=CC=CC(C)=N1,-,R946105,M7967,-,-,"2,6-dimethylpyridine",Koerner,charochkina,A5793,-,-,-,6.705,Log unit,25,?C,n1c(cccc1C)C,0
CC1=C(C)C=NC=C1,-,R946106,M7609,-,-,"3,4-dimethylpyridine",Koerner,charochkina,A5793,-,-,-,6.42,Log unit,25,?C,n1cc(C)c(C)cc1,0
CC1=CC(C)=CN=C1,-,R946107,M4166,-,-,"3,5-dimethylpyridine",Koerner,charochkina,A5793,-,-,-,6.15,Log unit,25,?C,n1cc(C)cc(C)c1,0
CN(C)C1=CC=NC=C1,-,R946108,M24652,-,-,4-DIMETHYLAMINOPYRIDINE,Koerner,charochkina,A5793,-,-,-,9.7,Log unit,25,?C,n1ccc(N(C)C)cc1,0
CN(C)CCC1=CC=CC=N1,-,R946109,M2988,-,-,2-(dimethylaminoethyl)-pyridine,Koerner,charochkina,A5793,-,-,-,8.75,Log unit,25,?C,N(CCc1ncccc1)(C)C,8
CN(C)CCC1=CN=CC=C1,-,R946110,M34924,-,-,3-(dimethylaminoethyl)-pyridine,Koerner,charochkina,A5793,-,-,-,8.86,Log unit,25,?C,N(CCc1cnccc1)(C)C,8
C[NH+](C)CCC1=CN=CC=C1,-,R946111,M34924,-,-,3-(dimethylaminoethyl)-pyridine,Koerner,charochkina,A5793,-,-,-,4.3,Log unit,25,?C,n1cccc(c1)CC[NH+](C)C,0
CCC1=CN=CC=C1N(C)C,-,R946112,M1106753,-,-,4-dimethylamino-3-ethylpyridine,Koerner,charochkina,A5793,-,-,-,8.67,Log unit,25,?C,n1ccc(N(C)C)c(c1)CC,0
CN(C)CCC1=CC=NC=C1,-,R946113,M41608,-,-,4-(DIMETHYLAMINOETHYL)PYRIDINE,Koerner,charochkina,A5793,-,-,-,8.7,Log unit,25,?C,N(CCc1ccncc1)(C)C,6
C[NH+](C)CCC1=CC=NC=C1,-,R946114,M41608,-,-,4-(DIMETHYLAMINOETHYL)PYRIDINE,Koerner,charochkina,A5793,-,-,-,4.66,Log unit,25,?C,n1ccc(CC[NH+](C)C)cc1,0
CN(C)CCC(C1=CC=CC=C1)C1=CC=CC=N1,-,R946115,M4433,-,-,2[alpha-(2-dimethylaminoethyl)benzyl]-pyridine,Koerner,charochkina,A5793,-,-,-,9.26,Log unit,25,?C,N(CCC(c1ncccc1)c1ccccc1)(C)C,15
COC1=CC=C(CN(CC[NH+](C)C)C2=CC=CC=N2)C=C1,-,R946116,M13468,-,-,2-[(2-dimethylaminoethyl)(p-methoxybenzyl)amino]-pyridine,Koerner,charochkina,A5793,-,-,-,4.02,Log unit,25,?C,n1ccccc1N(Cc1ccc(OC)cc1)CC[NH+](C)C,0
C[NH+](C)CCN(CC1=CC=CS1)C1=NC=CC=C1,-,R946117,M3946,-,-,2-[(2-dimethylaminoethyl)-2-thienylamino]-pyridine,Koerner,charochkina,A5793,-,-,-,3.66,Log unit,25,?C,n1c(N(Cc2sccc2)CC[NH+](C)C)cccc1,8
C[NH+](C)CCN(CC1=CSC=C1)C1=NC=CC=C1,-,R946118,M17989,-,-,2-[(2-dimethylaminoethyl)-3-thienylamino]-pyridine,Koerner,charochkina,A5793,-,-,-,3.94,Log unit,25,?C,n1c(N(Cc2cscc2)CC[NH+](C)C)cccc1,8
CCCC1=CN=CC=C1N(C)C,-,R946119,M1106754,-,-,4-dimethylamino-3-isopropylpyridine,Koerner,charochkina,A5793,-,-,-,8.26,Log unit,25,?C,n1ccc(N(C)C)c(c1)CCC,0
CN(C)CC1=CC=CC=N1,-,R946120,M124435,-,-,2-(DIMETHYLAMINOMETHYL)PYRIDINE,Koerner,charochkina,A5793,-,-,-,8.12,Log unit,25,?C,N(Cc1ncccc1)(C)C,7
CN(C)CC1=CN=CC=C1,-,R946121,M26214,-,-,3-(DIMETHYLAMINOMETHYL)PYRIDINE,Koerner,charochkina,A5793,-,-,-,8,Log unit,25,?C,N(Cc1cnccc1)(C)C,7
C[NH+](C)CC1=CN=CC=C1,-,R946122,M26214,-,-,3-(DIMETHYLAMINOMETHYL)PYRIDINE,Koerner,charochkina,A5793,-,-,-,3.17,Log unit,25,?C,n1cccc(c1)C[NH+](C)C,0
CN(C)CC1=CC=NC=C1,-,R946123,M124461,-,-,4-(DIMETHYLAMINOMETHYL)PYRIDINE,Koerner,charochkina,A5793,-,-,-,7.66,Log unit,25,?C,N(Cc1ccncc1)(C)C,5
C[NH+](C)CC1=CC=NC=C1,-,R946124,M124461,-,-,4-(DIMETHYLAMINOMETHYL)PYRIDINE,Koerner,charochkina,A5793,-,-,-,3.39,Log unit,25,?C,n1ccc(C[NH+](C)C)cc1,0
CN(C)C1=CC=NC=C1C,-,R946125,M1106755,-,-,4-dimethylamino-3-methylpyridine,Koerner,charochkina,A5793,-,-,-,8.69,Log unit,25,?C,n1ccc(N(C)C)c(c1)C,0
C[NH+](C)C1=CC=C(C=C1)N=NC1=CC=CC=N1,-,R946126,M989344,-,-,2-(4-dimethylamino)phenylazopyridine,Koerner,charochkina,A5793,-,-,-,2,Log unit,25,?C,n1ccccc1N=Nc1ccc([N+](C)C)cc1,0
CN(C)C1=CC=C(C=C1)N=NC1=CC=NC=C1,-,R946127,M1106756,-,-,4-(4-dimethylamino)phenylazopyridine,Koerner,charochkina,A5793,-,-,-,5.4,Log unit,25,?C,n1ccc(N=Nc2ccc(N(C)C)cc2)cc1,0
CC(=O)N=C(N)N,-,R945928,M38840,-,-,Acetylguanidine,Koerner,charochkina,A5793,-,-,-,8.26,Log unit,25,?C,C(=NC(=O)C)(N)N,1
NN=C(N)N,-,R945929,M17552,-,-,aminoguanidine,Koerner,charochkina,A5793,-,-,-,3,Log unit,25,?C,C(=NN)(N)N,1
NC(N)=NC1=CC2=C(C=C1)C=C1C=CC=CC1=C2,-,R945930,M1106705,-,-,2-anthrylguanidine,Koerner,charochkina,A5793,-,-,-,11,Log unit,25,?C,c1(cc2cc3ccccc3cc2cc1)N=C(N)N,1
CNC(=N)NC,-,R945931,M987722,-,-,"N,N'-Dimethylguanidine",Koerner,charochkina,A5793,-,-,-,13.9,Log unit,25,?C,C(=N)(NC)NC,2
CN(C)C(N)=NN(=O)=O,-,R945932,M1106706,-,-,"N,N-Dimethyl-N'-nitroguanidine",Koerner,charochkina,A5793,-,-,-,-1.3,Log unit,25,?C,C(=NN(=O)=O)(N(C)C)N,3
N=C(NC1=CC=CC=C1)NC1=CC=CC=C1,-,R945933,M18397,-,-,"N,N'-Dphenylguanidine",Koerner,charochkina,A5793,-,-,-,10.3,Log unit,25,?C,C(=N)(Nc1ccccc1)Nc1ccccc1,7
CNC(N)=N,-,R945934,M20658,-,-,METHYLGUANIDINE,Koerner,charochkina,A5793,-,-,-,13.7,Log unit,25,?C,C(=N)(NC)N,2
CNC(N)=NN(=O)=O,-,R945935,M29139,-,-,N-Methyl-N'-nitroguanidine,Koerner,charochkina,A5793,-,-,-,-0.9,Log unit,25,?C,C(=NN(=O)=O)(NC)N,2
NC(N)=NC1=CC2=C(C=CC=C2)C=C1,-,R945936,M184479,-,-,2-napthylguanidine,Koerner,charochkina,A5793,-,-,-,10.7,Log unit,25,?C,c1(cc2ccccc2cc1)N=C(N)N,1
NC(N)=NN(=O)=O,-,R945937,M4312,-,-,nitro-guanidine,Koerner,charochkina,A5793,-,-,-,-0.93,Log unit,25,?C,C(=NN(=O)=O)(N)N,1
NC(N)=NN=O,-,R945938,M23237,-,-,nitroso-Guanidine,Koerner,charochkina,A5793,-,-,-,2.13,Log unit,25,?C,C(=NN=O)(N)N,1
NC(N)=NC#N,-,R945939,M9102,-,-,Cyano-Guanidine,Koerner,charochkina,A5793,-,-,-,-0.4,Log unit,25,?C,C(=NC#N)(N)N,1
CN=C(N(C)C)N(C)C,-,R945940,M1106707,-,-,pentmethylaguanidine,Koerner,charochkina,A5793,-,-,-,13.8,Log unit,25,?C,C(=NC)(N(C)C)N(C)C,3
NC(N)=NC1=CC=CC=C1,-,R945941,M26086,-,-,N-Phenylguanidine,Koerner,charochkina,A5793,-,-,-,10.8,Log unit,25,?C,C(=Nc1ccccc1)(N)N,1
CN(C)C(=N)N(C)C,-,R945942,M17619,-,-,"N,N,N',N'-tetramethylaguanidine",Koerner,charochkina,A5793,-,-,-,13.9,Log unit,25,?C,C(=N)(N(C)C)N(C)C,3
CNC(=NC)N(C)C,-,R945943,M1106708,-,-,"N,N,N',N''-tetramethylaguanidine",Koerner,charochkina,A5793,-,-,-,13.9,Log unit,25,?C,C(=NC)(N(C)C)NC,3
CNC(=N)N(C)C,-,R945944,M1106709,-,-,"N,N',N'-trimethylaguanidine",Koerner,charochkina,A5793,-,-,-,13.9,Log unit,25,?C,C(=N)(N(C)C)NC,3
CNC(=NN(=O)=O)N(C)C,-,R945945,M1106710,-,-,"N,N',N'-tetra-nitro-methylaguanidine",Koerner,charochkina,A5793,-,-,-,-0.82,Log unit,25,?C,C(=NN(=O)=O)(N(C)C)NC,3
CNC(NC)=NC,-,R945946,M76611,-,-,"N,N',N''-tetramethylaguanidine",Koerner,charochkina,A5793,-,-,-,13.9,Log unit,25,?C,C(=NC)(NC)NC,2
OC1=CC(=C2C=NNC2=C1)S(=O)=O,-,R945947,M1107266,-,-,33 1H-6-hydroxy-4-sulfonicindazole,Koerner,charochkina,A5793,-,-,-,8.85,Log unit,25,?C,Oc1cc(c2cn[nH]c2c1)[S](=O)=O,10
OC1=C2NN=CC2=C(C=C1)S(=O)=O,-,R945948,M1107267,-,-,33 1H-7-hydroxy-4-sulfonicindazole,Koerner,charochkina,A5793,-,-,-,7.6,Log unit,25,?C,Oc1ccc(c2cn[nH]c12)[S](=O)=O,11
OC1=C2NN=CC2=CC(=C1)S(=O)=O,-,R945949,M1107268,-,-,33 1H-7-hydroxy-5-sulfonicindazole,Koerner,charochkina,A5793,-,-,-,8,Log unit,25,?C,Oc1cc(cc2cn[nH]c12)[S](=O)=O,11
OC1=CC(=C2NN=CC2=C1)S(=O)=O,-,R945950,M1107269,-,-,33 1H-7-hydroxy-5-sulfonicindazole,Koerner,charochkina,A5793,-,-,-,8.1,Log unit,25,?C,Oc1cc2cn[nH]c2c(c1)[S](=O)=O,6
C1=CC=NC=C1,-,R945951,M5279,-,-,pyridine,Koerner,charochkina,A5793,-,-,-,5.21,Log unit,25,?C,n1ccccc1,0
CC(=O)NC1=CN=CC=C1,-,R945952,M5311,-,-,3-Acetamidopyridine,Koerner,charochkina,A5793,-,-,-,4.41,Log unit,25,?C,n1cccc(c1)NC(=O)C,0
CC(=O)NC1=CC=NC=C1,-,R945953,M789,-,-,4-Acetamidopyridine,Koerner,charochkina,A5793,-,-,-,5.87,Log unit,25,?C,n1ccc(NC(=O)C)cc1,0
NC1=CC=CC=N1,-,R945954,M4302,-,-,2-Aminopyridine,Koerner,charochkina,A5793,-,-,-,6.765,Log unit,25,?C,n1ccccc1N,0
CC(=O)C1=CC=CC=N1,-,R945955,M204,-,-,2-acetylpyridine,Koerner,charochkina,A5793,-,-,-,2.545,Log unit,25,?C,n1ccccc1C(=O)C,0
CC(=O)C1=CN=CC=C1,-,R945956,M12202,-,-,3-ACETYLPYRIDINE,Koerner,charochkina,A5793,-,-,-,3.18,Log unit,25,?C,n1cccc(c1)C(=O)C,0
CC(=O)C1=CC=NC=C1,-,R945957,M12430,-,-,4-acetylpyridine,Koerner,charochkina,A5793,-,-,-,3.38,Log unit,25,?C,n1ccc(C(=O)C)cc1,0
NC1=CN=CC=C1,-,R945958,M1664,-,-,3-Amino-pyridine,Koerner,charochkina,A5793,-,-,-,6.03,Log unit,25,?C,n1cccc(c1)N,0
NC1=CC=NC=C1,-,R945959,M7603,-,-,4-amino-pyridine,Koerner,charochkina,A5793,-,-,-,9.18,Log unit,25,?C,n1ccc(N)cc1,0
NC1=CC=NC=C1Br,-,R945960,M32993,-,-,4-AMINO-3-BROMOPYRIDINE,Koerner,charochkina,A5793,-,-,-,7.05,Log unit,25,?C,n1cc(Br)c(cc1)N,3
NC1=CC=CC(Br)=N1,-,R945961,M109534,-,-,2-AMINO-6-BROMOPYRIDINE,Koerner,charochkina,A5793,-,-,-,2.6,Log unit,25,?C,n1c(Br)cccc1N,2
NC1=CC(=NC(=C1)C([O-])=O)C([O-])=O,-,R945962,M1106721,-,-,"4-amino-2,6-dicarboxypyridine",Koerner,charochkina,A5793,-,-,-,9.2,Log unit,25,?C,n1c(cc(N)cc1C(=O)[O-])C(=O)[O-],0
NC1CC([NH2+]C(C1)C([O-])=O)C(O)=O,-,R945963,M1107270,-,-,"4-amino-2,6-dicarboxypyridine",Koerner,charochkina,A5793,-,-,-,1.8,Log unit,25,?C,OC(=O)C1[NH2+]C([CH]C([CH]1)N)C(=O)[O-],7
NC1[NH2+]CCCC1C(O)=O,-,R945964,M1107271,-,-,2-amino-3-carboxypyridine,Koerner,charochkina,A5793,-,-,-,2.4,Log unit,25,?C,OC(=O)C1C([NH2+][CH][CH][CH]1)N,9
NC1=C(C=CC=N1)C([O-])=O,-,R945965,M75275,-,-,2-amino-3-carboxypyridine,Koerner,charochkina,A5793,-,-,-,6.58,Log unit,25,?C,n1cccc(c1N)C(=O)[O-],0
NC1CCC[NH2+]C1C(O)=O,-,R945966,M1107272,-,-,3-amino-2-carboxypyridine,Koerner,charochkina,A5793,-,-,-,1.5,Log unit,25,?C,OC(=O)C1[NH2+][CH][CH][CH]C1N,9
NC1=CC(=CC=N1)C([O-])=O,-,R945967,M757911,-,-,2-amino-4-carboxypyridine,Koerner,charochkina,A5793,-,-,-,6.37,Log unit,25,?C,n1ccc(C(=O)[O-])cc1N,0
NC1=CC(Cl)=CC=N1,-,R945968,M449002,-,-,2-amino-4-chloropyridine,Koerner,charochkina,A5793,-,-,-,5.7,Log unit,25,?C,n1ccc(Cl)cc1N,4
NC1=NC=C(Cl)C=C1,-,R945969,M24460,-,-,2-Amino-5-chloropyridine,Koerner,charochkina,A5793,-,-,-,4.83,Log unit,25,?C,n1cc(Cl)ccc1N,3
NC1=CC=C(C=N1)C#N,-,R945970,M748297,-,-,2-Amino-5-cyanopyridine,Koerner,charochkina,A5793,-,-,-,3.41,Log unit,25,?C,n1cc(ccc1N)C#N,0
NC1=NC=C(Cl)C=C1Cl,-,R945971,M73945,-,-,"2-Amino-3,5-dichloropyridine",Koerner,charochkina,A5793,-,-,-,2.75,Log unit,25,?C,n1cc(Cl)cc(c1N)Cl,3
NC1=CC(Cl)=NC(Cl)=C1,-,R945972,M748630,-,-,"4-Amino-2,6-dichloropyridine",Koerner,charochkina,A5793,-,-,-,1.17,Log unit,25,?C,n1c(Cl)cc(cc1Cl)N,2
NC1=CN=C(Cl)C=C1Cl,-,R945973,M1106722,-,-,"5-amino-2,4-dichloropyridine",Koerner,charochkina,A5793,-,-,-,0.73,Log unit,25,?C,n1c(Cl)cc(c(c1)N)Cl,2
CC1=CC(N)=NC(C)=C1,-,R945974,M30223,-,-,"2-AMINO-4,6-DIMETHYLPYRIDINE",Koerner,charochkina,A5793,-,-,-,7.84,Log unit,25,?C,n1c(cc(C)cc1C)N,0
CC1=CN=CC(C)=C1N,-,R945975,M124463,-,-,"4-AMINO-3,5-DIMETHYLPYRIDINE",Koerner,charochkina,A5793,-,-,-,9.53,Log unit,25,?C,n1cc(c(N)c(c1)C)C,0
CCOC(=O)C1=C(N)N=CC=C1,-,R945976,M1106723,-,-,2-amino-3-ethoxycarbonylpyridine,Koerner,charochkina,A5793,-,-,-,4.73,Log unit,25,?C,n1cccc(c1N)C(=O)OCC,0
CCOC(=O)C1=CC=NC(N)=C1,-,R945977,M1106724,-,-,2-amino-4-ethoxycarbonylpyridine,Koerner,charochkina,A5793,-,-,-,5.25,Log unit,25,?C,n1ccc(C(=O)OCC)cc1N,0
[NH3+]CCC1=CC=CC=N1,-,R945978,M13140,-,-,2-(2-aminoethyl)-pyridine,Koerner,charochkina,A5793,-,-,-,3.8,Log unit,25,?C,n1ccccc1CC[NH3+],0
NCCC1=CC=CC=N1,-,R945979,M13140,-,-,2-(2-aminoethyl)-pyridine,Koerner,charochkina,A5793,-,-,-,9.75,Log unit,25,?C,NCCc1ncccc1,8
NC1=CC([O-])=CC=N1,-,R945980,M1106725,-,-,2-amino-4-hydroxypyridine,Koerner,charochkina,A5793,-,-,-,10.7,Log unit,25,?C,n1ccc([O-])cc1N,0
NC1=CC=CC([O-])=N1,-,R945981,M92059,-,-,2-amino-6-hydroxypyridine,Koerner,charochkina,A5793,-,-,-,11.38,Log unit,25,?C,n1c(cccc1N)[O-],0
NC1=C([O-])N=CC=C1,-,R945982,M748346,-,-,3-Amino-2-hydroxypyridine,Koerner,charochkina,A5793,-,-,-,12.57,Log unit,25,?C,n1cccc(c1[O-])N,0
NC1=CN=CC=C1[O-],-,R945983,M1106726,-,-,3-amino-4-hydroxypyridine,Koerner,charochkina,A5793,-,-,-,11.38,Log unit,25,?C,n1ccc([O-])c(c1)N,0
NC1C[NH2+]CCC1O,-,R945984,M1107273,-,-,3-amino-4-hydroxypyridine,Koerner,charochkina,A5793,-,-,-,3.84,Log unit,25,?C,OC1[CH][CH][NH2+][CH]C1N,4
NC1=CC=NC([O-])=C1,-,R945985,M1106727,-,-,4-amino-2-hydroxypyridine,Koerner,charochkina,A5793,-,-,-,13.54,Log unit,25,?C,n1ccc(N)cc1[O-],0
NC1=CC=C([O-])N=C1,-,R945986,M1106728,-,-,5-amino-2-hydroxypyridine,Koerner,charochkina,A5793,-,-,-,11.65,Log unit,25,?C,n1cc(ccc1[O-])N,0
CCC1=CN=CC=C1N,-,R945987,M124465,-,-,4-AMINO-3-ETHYLPYRIDINE,Koerner,charochkina,A5793,-,-,-,9.49,Log unit,25,?C,n1ccc(N)c(c1)CC,0
CC(C)C1=CN=CC=C1N,-,R945988,M124466,-,-,4-AMINO-3-ISOPROPYLPYRIDINE,Koerner,charochkina,A5793,-,-,-,9.59,Log unit,25,?C,n1ccc(N)c(c1)C(C)C,0
NC1C[NH2+]CCC1S,-,R945989,M1107274,-,-,3-amino-4-mercaptopyridine,Koerner,charochkina,A5793,-,-,-,1.6,Log unit,25,?C,SC1[CH][CH][NH2+][CH]C1N,0
NC1=CN=CC=C1[S-],-,R945990,M1106729,-,-,3-amino-4-mercaptopyridine,Koerner,charochkina,A5793,-,-,-,9.2,Log unit,25,?C,n1ccc([S-])c(c1)N,4
COC1=CC=NC(N)=C1,-,R945991,M215875,-,-,2-amino-4-methoxypyridine,Koerner,charochkina,A5793,-,-,-,7.62,Log unit,25,?C,n1ccc(OC)cc1N,0
COC1=CC=CC(N)=N1,-,R945992,M1106730,-,-,2-amino-6-methoxypyridine,Koerner,charochkina,A5793,-,-,-,4.64,Log unit,25,?C,n1c(cccc1OC)N,0
COC1=C(N)C=CC=N1,-,R945993,M748937,-,-,3-amino-2-methoxypyridine,Koerner,charochkina,A5793,-,-,-,3.35,Log unit,25,?C,n1cccc(c1OC)N,0
COC1=CC=NC=C1N,-,R945994,M1106731,-,-,3-amino-4-methoxypyridine,Koerner,charochkina,A5793,-,-,-,7.41,Log unit,25,?C,n1ccc(OC)c(c1)N,0
COC1=CC(N)=CC=N1,-,R945995,M1106732,-,-,4-amino-2-methoxypyridine,Koerner,charochkina,A5793,-,-,-,7.05,Log unit,25,?C,n1ccc(N)cc1OC,0
COC1=CC=C(N)C=N1,-,R945996,M31362,-,-,5-Amino-2-methoxypyridine,Koerner,charochkina,A5793,-,-,-,4.28,Log unit,25,?C,n1cc(ccc1OC)N,0
COC(=O)C1=C(N)N=CC=C1,-,R945997,M751102,-,-,2-amino-3-methoxycarbonylpyridine,Koerner,charochkina,A5793,-,-,-,4.78,Log unit,25,?C,n1cccc(c1N)C(=O)OC,0
COC(=O)C1=CC=NC(N)=C1,-,R945998,M757657,-,-,2-amino-4-methoxycarbonylpyridine,Koerner,charochkina,A5793,-,-,-,5.21,Log unit,25,?C,n1ccc(C(=O)OC)cc1N,0
[NH3+]CC1=CC=CC=N1,-,R945999,M12484,-,-,2-aminomethylpyridine,Koerner,charochkina,A5793,-,-,-,3.1,Log unit,25,?C,n1ccccc1C[NH3+],0
NCC1=CC=CC=N1,-,R946000,M12484,-,-,2-aminomethylpyridine,Koerner,charochkina,A5793,-,-,-,8.78,Log unit,25,?C,NCc1ncccc1,7
CC1=C(N)N=CC=C1,-,R946001,M25447,-,-,2-Amino-3-methylpyridine,Koerner,charochkina,A5793,-,-,-,7.24,Log unit,25,?C,n1cccc(c1N)C,0
CC1=CC=NC(N)=C1,-,R946002,M8193,-,-,2-amino-4-methylpyridine,Koerner,charochkina,A5793,-,-,-,7.48,Log unit,25,?C,n1ccc(C)cc1N,0
CC1=CC=C(N)N=C1,-,R946003,M1474,-,-,2-AMINO-5-METHYLPYRIDINE,Koerner,charochkina,A5793,-,-,-,7.22,Log unit,25,?C,n1cc(ccc1N)C,0
CC1=CC=CC(N)=N1,-,R946004,M25821,-,-,2-Amino-6-methylpyridine,Koerner,charochkina,A5793,-,-,-,7.41,Log unit,25,?C,n1c(cccc1C)N,0
NCC1=CN=CC=C1,-,R946005,M3725,-,-,3-aminomethylpyridine,Koerner,charochkina,A5793,-,-,-,8.04,Log unit,25,?C,NCc1cnccc1,7
CC1=CN=CC=C1N,-,R946006,M26077,-,-,4-Amino-3-methylpyridine,Koerner,charochkina,A5793,-,-,-,9.45,Log unit,25,?C,n1ccc(N)c(c1)C,0
CC1=CC=C(CN)C=N1,-,R946007,M1107275,-,-,3-aminomethyl-6-methylpyridine,Koerner,charochkina,A5793,-,-,-,8.764999,Log unit,25,?C,NCc1cnc(cc1)C,5
NC1=CC=C(C=C1)C1CCCC[NH2+]1,-,R946008,M1107276,-,-,2-p-aminophenylpyridine,Koerner,charochkina,A5793,-,-,-,2.47,Log unit,25,?C,Nc1ccc(C2[NH2+][CH][CH][CH][CH]2)cc1,10
NC1=CC=C(C=C1)C1CC[NH2+]CC1,-,R946009,M1107277,-,-,2-p-aminophenylpyridine,Koerner,charochkina,A5793,-,-,-,2.75,Log unit,25,?C,Nc1ccc(C2[CH][CH][NH2+][CH][CH]2)cc1,8
CC1=C(N)N=CC(=C1)N(=O)=O,-,R946010,M746708,-,-,2-Amino-3-methyl-5-nitropyridine,Koerner,charochkina,A5793,-,-,-,3.58,Log unit,25,?C,n1cc(cc(c1N)C)N(=O)=O,0
CC1=CC(=C(N)N=C1)N(=O)=O,-,R946011,M729940,-,-,2-amino-5-methyl-3-nitropyridine,Koerner,charochkina,A5793,-,-,-,2.98,Log unit,25,?C,n1cc(cc(c1N)N(=O)=O)C,0
NC1=C(C=CC=N1)N(=O)=O,-,R946012,M73946,-,-,2-Amino-3-nitropyridine,Koerner,charochkina,A5793,-,-,-,2.33,Log unit,25,?C,n1cccc(c1N)N(=O)=O,0