Smiles,CASRN,Record ID,Molecule ID,External ID,N,Name,Introducer,Modifer,Article ID,PUBMED ID,PAGE,TABLE,pKa,pKa Unit,Temperature,Temperature Unit,Ionizable center smiles,IC group
CN(C)CCCC(C)=O,-,R944943,M1106986,-,-,1-acetyl-3-dimethylaminopropane,Koerner,charochkina,A5793,-,-,-,9.07,Log unit,25,?C,N(CCCC(=O)C)(C)C,6
CC(CN(C)C)C(C(C)=O)(C1=CC=CC=C1)C1=CC=CC=C1,-,R944944,M1106987,-,-,"1-acetyl-3-dimethylamino-2-methyl-1,1-diphenylpropane",Koerner,charochkina,A5793,-,-,-,9.53,Log unit,25,?C,N(CC(C(c1ccccc1)(c1ccccc1)C(=O)C)C)(C)C,16
CCCN,-,R944945,M12277,-,-,1-amino-propane,Koerner,charochkina,A5793,-,-,-,10.699,Log unit,25,?C,NCCC,0
CC(C)N,-,R944946,M5061,-,-,2-AMINO-PROPANE,Koerner,charochkina,A5793,-,-,-,10.7,Log unit,25,?C,NC(C)C,0
[NH3+]CCCNCCC[NH3+],-,R944947,M17139,-,-,1-amino-3-(3-aminopropyl)aminopropane,Koerner,charochkina,A5793,-,-,-,7.9,Log unit,25,?C,N(CCC[NH3+])CCC[NH3+],4
CN(CCCN)CCCN,-,R944948,M18551,-,-,1-amino-3-(3-aminoproplylmethyl)aminopropane,Koerner,charochkina,A5793,-,-,-,9.8,Log unit,25,?C,NCCCN(C)CCCN,0
CN(CCC[NH3+])CCC[NH3+],-,R944949,M18551,-,-,1-amino-3-(3-aminoproplylmethyl)aminopropane,Koerner,charochkina,A5793,-,-,-,6.5,Log unit,25,?C,N(CCC[NH3+])(C)CCC[NH3+],4
NCCCBr,-,R944950,M1106988,-,-,1-amino-3-bromo-propane,Koerner,charochkina,A5793,-,-,-,8.93,Log unit,25,?C,NCCCBr,4
CC(CN)C#N,-,R944951,M65183,-,-,1-amino-2-cyanopropane,Koerner,charochkina,A5793,-,-,-,7.75,Log unit,25,?C,NCC(C#N)C,5
CC(N)CC#N,-,R944952,M1106989,-,-,2-amino-1-cyanopropane,Koerner,charochkina,A5793,-,-,-,7.85,Log unit,25,?C,NC(CC#N)C,4
CC(C)(N)C#N,-,R944953,M34706,-,-,2-amino-2-cyano-propane,Koerner,charochkina,A5793,-,-,-,5.3,Log unit,25,?C,NC(C#N)(C)C,3
NC(CO)(CO)CO,-,R944954,M6104,-,-,2-amino-2-hydroxymethylpropane,Koerner,charochkina,A5793,-,-,-,7.93885,Log unit,25,?C,NC(CO)(CO)CO,3
CC(O)CN,-,R944955,M4176,-,-,1-Amino-2-hydroxypropane,Koerner,charochkina,A5793,-,-,-,9.619,Log unit,25,?C,NCC(O)C,4
CC(N)(CO)CO,-,R944956,M11448,-,-,"2-amino-1,3-dihydroxy-2-methyl-propane",Koerner,charochkina,A5793,-,-,-,9.1,Log unit,25,?C,NC(CO)(C)CO,3
CC(C)(C)CN,-,R944957,M12831,-,-,"1-amino-2,2-dimethyl-propane",Koerner,charochkina,A5793,-,-,-,10.155,Log unit,25,?C,NCC(C)(C)C,0
NCCCO,-,R944958,M12615,-,-,1-amino-3-hydroxy-propane,Koerner,charochkina,A5793,-,-,-,9.905001,Log unit,25,?C,NCCCO,4
CC(N)CO,-,R944959,M831,-,-,2-amino-1-hydroxy-propane,Koerner,charochkina,A5793,-,-,-,9.43,Log unit,25,?C,NC(CO)C,3
CC(C)(O)CN,-,R944960,M1106990,-,-,1-amino-2-hydroxy-2-methyl-propane,Koerner,charochkina,A5793,-,-,-,9.25,Log unit,25,?C,NCC(O)(C)C,5
CC(C)(N)CO,-,R944961,M1233,-,-,2-amino-1-hydroxy-2-methyl-propane,Koerner,charochkina,A5793,-,-,-,9.715,Log unit,25,?C,NC(CO)(C)C,3
CC(C)(N)CO,-,R944962,M1233,-,-,2-amino-2-hydroxymethylpropane,Koerner,charochkina,A5793,-,-,-,9.853,Log unit,25,?C,NC(CO)(C)C,3
CC(C)(C)N,-,R944963,M13408,-,-,2-amino-2-methyl-propane,Koerner,charochkina,A5793,-,-,-,10.54,Log unit,25,?C,NC(C)(C)C,0
CC(C)CN,-,R944964,M5495,-,-,1-amino-2-methyl-propane,Koerner,charochkina,A5793,-,-,-,10.47,Log unit,25,?C,NCC(C)C,0
NCC(Cl)(Cl)CCl,-,R944965,M1106991,-,-,"1-amino-2,2,3-trichloropropane",Koerner,charochkina,A5793,-,-,-,6,Log unit,25,?C,NCC(CCl)(Cl)Cl,6
NCCC(Cl)(Cl)Cl,-,R944966,M1106992,-,-,"1-amino-3,3,3-tricloro-propane",Koerner,charochkina,A5793,-,-,-,9.65,Log unit,25,?C,NCCC(Cl)(Cl)Cl,6
NCCC(F)(F)F,-,R944967,M14624,-,-,"1-amino-3,3,3-trifluoro-propane",Koerner,charochkina,A5793,-,-,-,8.7,Log unit,25,?C,NCCC(F)(F)F,6
CN(C)CCC(C(=O)C1=CC=CC=C1)(C1=CC=CC=C1)C1=CC=CC=C1,-,R944968,M1106993,-,-,"1-benzoyl-3-dimethylamino-1,1-diphenylpropane",Koerner,charochkina,A5793,-,-,-,9.47,Log unit,25,?C,N(CCC(C(=O)c1ccccc1)(c1ccccc1)c1ccccc1)(C)C,21
CCN(CC)CCC(OC(=O)CC1=CC=CC=C1)C1=CC=CC=C1,-,R944969,M1106994,-,-,1-benzylcarbonyl-3-diethylamino-1-phenylpropane,Koerner,charochkina,A5793,-,-,-,9.46,Log unit,25,?C,N(CCC(OC(=O)Cc1ccccc1)c1ccccc1)(CC)CC,19
CN(C)CCC(C(=O)CC1=CC=CC=C1)C1=CC=CC=C1,-,R944970,M1106995,-,-,1-benzylcarbonyl-3-dimethylamino-1-phenylpropane,Koerner,charochkina,A5793,-,-,-,8.99,Log unit,25,?C,N(CCC(C(=O)Cc1ccccc1)c1ccccc1)(C)C,16
CCCN(CCCl)CCCl,-,R944971,M22668,-,-,1-bis(2-chloroethyl)aminopropane,Koerner,charochkina,A5793,-,-,-,6.84,Log unit,25,?C,N(CCCl)(CCCl)CCC,3
CC(C)N(CCCl)CCCl,-,R944972,M22606,-,-,2-bis(2-chloroethyl)aminopropane,Koerner,charochkina,A5793,-,-,-,6.95,Log unit,25,?C,N(CCCl)(CCCl)C(C)C,3
CCN(CC)CCCN(CC)CC,-,R944973,M742086,-,-,"1,3-bisdiethylaminopropane",Koerner,charochkina,A5793,-,-,-,9.9,Log unit,25,?C,N(CC)(CC)CCCN(CC)CC,0
CCN(CC)CCC[NH+](CC)CC,-,R944974,M742086,-,-,"1,3-bisdiethylaminopropane",Koerner,charochkina,A5793,-,-,-,8.5,Log unit,25,?C,[NH+](CC)(CC)CCCN(CC)CC,0
CCN(CC)CC(O)CN(CC)CC,-,R944975,M1106996,-,-,"1,3-bisdiethylamino-2-hydroxypropane",Koerner,charochkina,A5793,-,-,-,9.5,Log unit,25,?C,N(CC(O)CN(CC)CC)(CC)CC,3
CCN(CC)CC(O)C[NH+](CC)CC,-,R944976,M1106996,-,-,"1,3-bisdiethylamino-2-hydroxypropane",Koerner,charochkina,A5793,-,-,-,7.44,Log unit,25,?C,[NH+](CC(O)CN(CC)CC)(CC)CC,3
CC(CN(C)C)N(C)C,-,R944977,M123045,-,-,"1,2-bisdimethylaminopropane",Koerner,charochkina,A5793,-,-,-,9.19,Log unit,25,?C,N(C)(C)CC(N(C)C)C,0
CN(C)CCCN(C)C,-,R944978,M18744,-,-,"1,3-bisdimethylaminopropane",Koerner,charochkina,A5793,-,-,-,9.5,Log unit,25,?C,N(C)(C)CCCN(C)C,0
CN(C)CCC[NH+](C)C,-,R944979,M18744,-,-,"1,3-bisdimethylaminopropane",Koerner,charochkina,A5793,-,-,-,8,Log unit,25,?C,[NH+](C)(C)CCCN(C)C,0
CCCN(CC(C)O)CC(C)O,-,R944980,M1106997,-,-,1-(bis-2-hydroxypropyl)aminopropane,Koerner,charochkina,A5793,-,-,-,8.6,Log unit,25,?C,N(CC(O)C)(CCC)CC(O)C,4
CC(O)CN(CCC[NH+](C)C)CC(C)O,-,R944981,M93866,-,-,1-(bis-2-hydroxypropyl)amino-3-dimethylaminopropane,Koerner,charochkina,A5793,-,-,-,6.8,Log unit,25,?C,N(CC(O)C)(CC(O)C)CCC[NH+](C)C,4
CCC(C)N(CC(C)O)CC(C)O,-,R944982,M1106998,-,-,1-(bis-2-hydroxypropyl)amino-2-methylpropane,Koerner,charochkina,A5793,-,-,-,8.8,Log unit,25,?C,N(CC(O)C)(CC(O)C)C(C)CC,4
CC(O)CN(CC(C)O)C(C)(C)C,-,R944983,M1106999,-,-,2-(bis-2-hydroxypropyl)amino-2-methylpropane,Koerner,charochkina,A5793,-,-,-,9.4,Log unit,25,?C,N(CC(O)C)(CC(O)C)C(C)(C)C,4
CCN(CC)CCC(C([O-])=O)(C1=CC=CC=C1)C1=CC=CC=C1,-,R944984,M1107000,-,-,"1-carboxy-3-diethylamino-1,1-diphenylpropane",Koerner,charochkina,A5793,-,-,-,10.59,Log unit,25,?C,N(CCC(c1ccccc1)(c1ccccc1)C(=O)[O-])(CC)CC,16
CCN(CC)CCCC#N,-,R944985,M75261,-,-,1-cyano-3-diethylaminopropane,Koerner,charochkina,A5793,-,-,-,9.29,Log unit,25,?C,N(CCCC#N)(CC)CC,5
CCN(CC)CCC(C#N)(C1=CC=CC=C1)C1=CC=CC=C1,-,R944986,M1107001,-,-,"1-cyano-3-diethylamino-1,1-diphenylpropane",Koerner,charochkina,A5793,-,-,-,9.08,Log unit,25,?C,N(CCC(c1ccccc1)(c1ccccc1)C#N)(CC)CC,15
CN(C)CCC(C#N)(C1=CC=CC=C1)C1=CC=CC=C1,-,R944987,M476539,-,-,"1-cyano-3-dimethylamino-1,1-diphenylpropane",Koerner,charochkina,A5793,-,-,-,8.26,Log unit,25,?C,N(CCC(c1ccccc1)(c1ccccc1)C#N)(C)C,15
CC(CN(C)C)C(C#N)(C1=CC=CC=C1)C1=CC=CC=C1,-,R944988,M42020,-,-,"1-cyano-3-dimethylamino-2-methyl-1,1-diphenylpropane",Koerner,charochkina,A5793,-,-,-,8.005,Log unit,25,?C,N(CC(C(c1ccccc1)(c1ccccc1)C#N)C)(C)C,16
CC(CC(C#N)(C1=CC=CC=C1)C1=CC=CC=C1)N(C)C,-,R944989,M65582,-,-,"1-cyano-3-dimethylamino-3-methyl-1,1-diphenylpropane",Koerner,charochkina,A5793,-,-,-,8.68,Log unit,25,?C,N(C(CC(c1ccccc1)(c1ccccc1)C#N)C)(C)C,15
CC(N)CN,-,R944990,M333,-,-,"1,2-diamino-propane",Koerner,charochkina,A5793,-,-,-,9.985001,Log unit,25,?C,NCC(N)C,0
CC(N)C[NH3+],-,R944991,M333,-,-,"1,2-diamino-propane",Koerner,charochkina,A5793,-,-,-,7.1,Log unit,25,?C,NC(C[NH3+])C,3
NCCCN,-,R944992,M12887,-,-,"1,3-diamino-propane",Koerner,charochkina,A5793,-,-,-,10.17,Log unit,25,?C,NCCCN,0
NCCC[NH3+],-,R944993,M12887,-,-,"1,3-diamino-propane",Koerner,charochkina,A5793,-,-,-,8.6,Log unit,25,?C,NCCC[NH3+],0
NCC(CN)CN,-,R944994,M124409,-,-,"1,3-DIAMINO-2-AMINOMETHYLPROPANE",Koerner,charochkina,A5793,-,-,-,10.03,Log unit,25,?C,NCC(CN)CN,0
NCC(CN)C[NH3+],-,R944995,M124409,-,-,"1,3-DIAMINO-2-AMINOMETHYLPROPANE",Koerner,charochkina,A5793,-,-,-,8.86,Log unit,25,?C,NCC(C[NH3+])CN,4
NCC(C[NH3+])C[NH3+],-,R944996,M124409,-,-,"1,3-DIAMINO-2-AMINOMETHYLPROPANE",Koerner,charochkina,A5793,-,-,-,7.36,Log unit,25,?C,NCC(C[NH3+])C[NH3+],6
CC(C)(CN)CN,-,R944997,M78465,-,-,"1,3-diamino-2,2-dimethylpropane",Koerner,charochkina,A5793,-,-,-,9.9,Log unit,25,?C,NCC(C)(C)CN,0
CC(C)(CN)C[NH3+],-,R944998,M78465,-,-,"1,3-diamino-2,2-dimethylpropane",Koerner,charochkina,A5793,-,-,-,8.5,Log unit,25,?C,NCC(C[NH3+])(C)C,6
NCC(O)CN,-,R944999,M11464,-,-,"1,3-Diamino-2-hydroxypropane",Koerner,charochkina,A5793,-,-,-,9.3,Log unit,25,?C,NCC(O)CN,3
NCC(O)C[NH3+],-,R945000,M11464,-,-,"1,3-Diamino-2-hydroxypropane",Koerner,charochkina,A5793,-,-,-,8,Log unit,25,?C,NCC(O)C[NH3+],5
CC(C)([NH3+])CN,-,R945001,M23663,-,-,"1,2-Diamino-2-methylpropane",Koerner,charochkina,A5793,-,-,-,6.79,Log unit,25,?C,NCC([NH3+])(C)C,0
CC[NH+](CC)CCC(C(=N)NC1=CC=CC=C1)C1=CC=CC=C1,-,R945002,M1106655,-,-,1-diethylamino-3-phenyl-3-phenylamidinopropane,Koerner,charochkina,A5793,-,-,-,7.18,Log unit,25,?C,C(=N)(Nc1ccccc1)C(c1ccccc1)CC[NH+](CC)CC,5
CC(O)CN(CC(C)O)CC(C)O,-,R945003,M19113,-,-,1-di(2-hydroxypropyl)amino-2-hydroxypropane,Koerner,charochkina,A5793,-,-,-,7.755,Log unit,25,?C,N(CC(O)C)(CC(O)C)CC(O)C,4
CC(C)CN(CC(C)C)CC(C)C,-,R945004,M24578,-,-,1-di-isobutylamino-2-methylpropane,Koerner,charochkina,A5793,-,-,-,10.32,Log unit,25,?C,N(CC(C)C)(CC(C)C)CC(C)C,0
CCCN(C)C,-,R945005,M24022,-,-,1-dimethylaminopropane,Koerner,charochkina,A5793,-,-,-,9.665,Log unit,25,?C,N(C)(C)CCC,0
CC(C)N(C)C,-,R945006,M24263,-,-,2-dimethylaminopropane,Koerner,charochkina,A5793,-,-,-,10.47,Log unit,25,?C,N(C)(C)C(C)C,0
CN(C)CCCC(=O)C(CCN(C)C)C1=CC=CC=C1,-,R945007,M1107002,-,-,1-dimethylamino-3-(3-dimethylamino-1-phenyl)propylcarbonylpropane,Koerner,charochkina,A5793,-,-,-,8.9,Log unit,25,?C,N(CCCC(=O)C(c1ccccc1)CCN(C)C)(C)C,10
CN(C)CCCN(C)CCCN(C)C,-,R945008,M73483,-,-,1-dimethylamino-3-(3-dimethylamino)propylmethylaminopropane,Koerner,charochkina,A5793,-,-,-,9.7,Log unit,25,?C,N(C)(C)CCCN(C)CCCN(C)C,0
CN(CCC[NH+](C)C)CCC[NH+](C)C,-,R945009,M73483,-,-,1-dimethylamino-3-(3-dimethylamino)propylmethylaminopropane,Koerner,charochkina,A5793,-,-,-,6.4,Log unit,25,?C,[NH+](C)(C)CCCN(C)CCC[NH+](C)C,0
CN(C)CCC(C1=CC=CC=C1)C1=CC=CC=C1,-,R945010,M1014407,-,-,"1-dimethylamino-3,3-diphenylpropane",Koerner,charochkina,A5793,-,-,-,9.35,Log unit,25,?C,N(CCC(c1ccccc1)c1ccccc1)(C)C,13
CCOC(=O)C(CC(C)N(C)C)(C1=CC=CC=C1)C1=CC=CC=C1,-,R945011,M43301,-,-,"1-dimethylamino-3-ethoxycarbonyl-1-methyl-3,3-diphenylpropane",Koerner,charochkina,A5793,-,-,-,10.12,Log unit,25,?C,N(C)(C)C(C)CC(c1ccccc1)(c1ccccc1)C(=O)OCC,0
CCOC(=O)C(CCN(C)C)(C1=CC=CC=C1)C1=CC=CC=C1,-,R945012,M1107003,-,-,"1-dimethylamino-3-ethylcarbonyl-3,3-diphenylpropane",Koerner,charochkina,A5793,-,-,-,9.07,Log unit,25,?C,N(CCC(c1ccccc1)(c1ccccc1)C(=O)OCC)(C)C,18
CC(C)CN(C)C,-,R945013,M31781,-,-,1-dimethylamino-2-methylpropane,Koerner,charochkina,A5793,-,-,-,10.08,Log unit,25,?C,N(C)(C)CC(C)C,0
CN(C)C(C)(C)C,-,R945014,M742726,-,-,2-dimethylamino-2-methylpropane,Koerner,charochkina,A5793,-,-,-,10.69,Log unit,25,?C,N(C)(C)C(C)(C)C,0
C[NH+](C)CCC(C(=N)NC1=CC=CC=C1)C1=CC=CC=C1,-,R945015,M1106656,-,-,1-dimethylamino-3-phenyl-3-phenylamidopropane,Koerner,charochkina,A5793,-,-,-,7.13,Log unit,25,?C,C(=N)(Nc1ccccc1)C(c1ccccc1)CC[NH+](C)C,5
CCCN(CCC)CCC,-,R945016,M13501,-,-,1-dipropylaminopropane,Koerner,charochkina,A5793,-,-,-,10.455,Log unit,25,?C,N(CCC)(CCC)CCC,0
CC(O)CNCCO,-,R945017,M77616,-,-,2-hydroxy-1-hydroxyethylaminepropane,Koerner,charochkina,A5793,-,-,-,8.81,Log unit,25,?C,N(CCO)CC(O)C,3
CC(C)N(CCO)C(C)C,-,R945018,M14521,-,-,2-N-(2-hydroxyethyl)-N-isopropylaminopropane,Koerner,charochkina,A5793,-,-,-,10.08,Log unit,25,?C,N(CCO)(C(C)C)C(C)C,3
CC(O)CN(C)CCO,-,R945019,M1107004,-,-,2-hydroxy-1-(2-hydroxyethylmethylamino)propane,Koerner,charochkina,A5793,-,-,-,8.7,Log unit,25,?C,N(CCO)(C)CC(O)C,3
CC(O)CNC(C)(C)C,-,R945020,M1107005,-,-,2-(2-hydroxypropylamino)-2-methylpropane,Koerner,charochkina,A5793,-,-,-,10,Log unit,25,?C,N(CC(O)C)C(C)(C)C,4
CC(C)CNCC(C)C,-,R945021,M18745,-,-,1-isobutylamino-2-methylpropane,Koerner,charochkina,A5793,-,-,-,10.705,Log unit,25,?C,N(CC(C)C)CC(C)C,0
CC(C)NC(C)C,-,R945022,M18646,-,-,2-isopropylaminopropane,Koerner,charochkina,A5793,-,-,-,11.045,Log unit,25,?C,N(C(C)C)C(C)C,0
CCCNCCC,-,R945023,M12204,-,-,1-propylaminopropane,Koerner,charochkina,A5793,-,-,-,10.895,Log unit,25,?C,N(CCC)CCC,0
NC(C[NH3+])C[NH3+],-,R945024,M1107006,-,-,"1,2,3-triaminopropane",Koerner,charochkina,A5793,-,-,-,3.99,Log unit,25,?C,NC(C[NH3+])C[NH3+],3
N#CCNCC#N,-,R944825,M22914,-,-,cyanocyanomethylaminomethane,Koerner,charochkina,A5793,-,-,-,0.2,Log unit,25,?C,N(CC#N)CC#N,3
CN(C)CC#N,-,R944826,M24023,-,-,N-cyanomethylaminomethane,Koerner,charochkina,A5793,-,-,-,4.15,Log unit,25,?C,N(CC#N)(C)C,3
CN(C)C,-,R944827,M3145,-,-,dimethylaminomethane,Koerner,charochkina,A5793,-,-,-,9.692,Log unit,25,?C,N(C)(C)C,1
CNO,-,R944828,M22111,-,-,N-hydroxyaminomethane,Koerner,charochkina,A5793,-,-,-,5.96,Log unit,25,?C,N(O)C,1
CN(C)O,-,R944829,M30582,-,-,N-hydroxy-N-methylaminomethane,Koerner,charochkina,A5793,-,-,-,5.2,Log unit,25,?C,N(O)(C)C,1
CNOC,-,R944830,M24590,-,-,N-methoxyaminomethane,Koerner,charochkina,A5793,-,-,-,4.75,Log unit,25,?C,N(OC)C,1
CON(C)C,-,R944831,M1106963,-,-,N-methoxyamino-N-methylmethane,Koerner,charochkina,A5793,-,-,-,3.65,Log unit,25,?C,N(OC)(C)C,2
CCN(CC)CCC(C)=O,-,R944832,M28069,-,-,1-acetyl-2-diethylaminoethane,Koerner,charochkina,A5793,-,-,-,9.04,Log unit,25,?C,N(CCC(=O)C)(CC)CC,5
CN(C)CCC(C)=O,-,R944833,M1106964,-,-,1-acetyl-2-dimethylaminoethane,Koerner,charochkina,A5793,-,-,-,8.37,Log unit,25,?C,N(CCC(=O)C)(C)C,5
CCN,-,R944834,M9452,-,-,amino-ethane,Koerner,charochkina,A5793,-,-,-,10.7985,Log unit,25,?C,NCC,0
NCCOCCN,-,R944835,M71785,-,-,1-amino-2-(2-amino)ethoxyethane,Koerner,charochkina,A5793,-,-,-,9.3,Log unit,25,?C,NCCOCCN,3
NCCOCC[NH3+],-,R944836,M71785,-,-,1-amino-2-(2-amino)ethoxyethane,Koerner,charochkina,A5793,-,-,-,8.9,Log unit,25,?C,NCCOCC[NH3+],3
[NH3+]CCNCC[NH3+],-,R944837,M18768,-,-,1-amino-2-(2-aminoethyl)aminoethane,Koerner,charochkina,A5793,-,-,-,4.6,Log unit,25,?C,N(CC[NH3+])CC[NH3+],3
NCCCl,-,R944838,M15003,-,-,1-amino-2-chloro-ethane,Koerner,charochkina,A5793,-,-,-,8.56,Log unit,25,?C,NCCCl,3
NCCC#N,-,R944839,M19705,-,-,1-amino-2-cyano-ethane,Koerner,charochkina,A5793,-,-,-,7.8,Log unit,25,?C,NCCC#N,4
NCC(F)F,-,R944840,M541321,-,-,"1-amino-2,2-difluoro-ethane",Koerner,charochkina,A5793,-,-,-,7.09,Log unit,25,?C,NCC(F)F,4
NCCF,-,R944841,M645498,-,-,1-amino-2-fluoro-ethane,Koerner,charochkina,A5793,-,-,-,8.79,Log unit,25,?C,NCCF,3
NCC[NH2+]CC1=CC=CC=C1,-,R944842,M73849,-,-,1-amino-2benzylaminoethane,Koerner,charochkina,A5793,-,-,-,6.5,Log unit,25,?C,NCC[NH2+]Cc1ccccc1,8
NCCBr,-,R944843,M99066,-,-,1-amino-2-bromo-ethane,Koerner,charochkina,A5793,-,-,-,8.49,Log unit,25,?C,NCCBr,3
CCCC[NH2+]CCN,-,R944844,M1106965,-,-,1-amino-2-butylaminoethane,Koerner,charochkina,A5793,-,-,-,7.5,Log unit,25,?C,NCC[NH2+]CCCC,0
NCCC#N,-,R944845,M19705,-,-,1-amino-2-cyano-ethane,Koerner,charochkina,A5793,-,-,-,7.7,Log unit,25,?C,NCCC#N,4
CC[NH+](CC)CCN,-,R944846,M18320,-,-,1-AMINO-2-DIETHYLAMINOETHANE,Koerner,charochkina,A5793,-,-,-,7.4,Log unit,25,?C,NCC[NH+](CC)CC,0
C[NH+](C)CCN,-,R944847,M18639,-,-,1-amino-2-dimethylaminoethane,Koerner,charochkina,A5793,-,-,-,6.6,Log unit,25,?C,NCC[NH+](C)C,0
NCCOCCSCC[NH3+],-,R944848,M1106966,-,-,1-(2-amino)ethoxy-2-(2-amino)ethylthioethane,Koerner,charochkina,A5793,-,-,-,8.8,Log unit,25,?C,NCCOCCSCC[NH3+],9
CCNCCN,-,R944849,M18738,-,-,1-amino-2-ethylaminoethane,Koerner,charochkina,A5793,-,-,-,10.26,Log unit,25,?C,NCCNCC,0
CC[NH2+]CCN,-,R944850,M18738,-,-,1-amino-2-ethylaminoethane,Koerner,charochkina,A5793,-,-,-,7.9,Log unit,25,?C,NCC[NH2+]CC,0
[NH3+]CCNCC[NH2+]CCNCC[NH3+],-,R944851,M18830,-,-,1-(2-aminoethyl)amino-2-[2-(2-aminoethyl)-aminoethyl]aminoethane,Koerner,charochkina,A5793,-,-,-,4.55,Log unit,25,?C,N(CC[NH3+])CC[NH2+]CCNCC[NH3+],3
[NH3+]CCNCC[NH2+]CC[NH2+]CC[NH3+],-,R944852,M18830,-,-,1-(2-aminoethyl)amino-2-[2-(2-aminoethyl)-aminoethyl]aminoethane,Koerner,charochkina,A5793,-,-,-,2.95,Log unit,25,?C,N(CC[NH3+])CC[NH2+]CC[NH2+]CC[NH3+],3
NCCO,-,R944853,M4218,-,-,1-amino-2-hydroxy-ethane,Koerner,charochkina,A5793,-,-,-,9.49,Log unit,25,?C,NCCO,3
CNC,-,R944854,M19196,-,-,methylaminomethane,Koerner,charochkina,A5793,-,-,-,10.63,Log unit,25,?C,N(C)C,0
NCC[NH2+]CCO,-,R944855,M18769,-,-,1-amino-2-(2-hydroxyethyl)aminoethane,Koerner,charochkina,A5793,-,-,-,6.8,Log unit,25,?C,NCC[NH2+]CCO,6
CC(O)C[NH2+]CCN,-,R944856,M19176,-,-,1-amino-2-(2-hydroxypropyl)amionethane,Koerner,charochkina,A5793,-,-,-,6.94,Log unit,25,?C,NCC[NH2+]CC(O)C,7
NCC[NH2+]CCCO,-,R944857,M1106967,-,-,1-amino-2-(3-hydroxypropyl)aminoethane,Koerner,charochkina,A5793,-,-,-,6.78,Log unit,25,?C,NCC[NH2+]CCCO,7
CC(C)[NH2+]CCN,-,R944858,M118265,-,-,1-amino-2-isopropylaminoethane,Koerner,charochkina,A5793,-,-,-,7.7,Log unit,25,?C,NCC[NH2+]C(C)C,0
[NH3+]CCS,-,R944859,M17222,-,-,1-amino-2-mercaptoethane,Koerner,charochkina,A5793,-,-,-,8.35,Log unit,25,?C,SCC[NH3+],0
NCC[S-],-,R944860,M17222,-,-,1-amino-2-mercaptoethane,Koerner,charochkina,A5793,-,-,-,10.3,Log unit,25,?C,NCC[S-],3
COCCN,-,R944861,M443,-,-,1-amino-2-methoxy-ethane,Koerner,charochkina,A5793,-,-,-,9.445,Log unit,25,?C,NCCOC,4
CNCC[NH3+],-,R944862,M18702,-,-,1-amino-2-methylaminoethane,Koerner,charochkina,A5793,-,-,-,6.86,Log unit,25,?C,N(CC[NH3+])C,3
CC1=CC=C(CNCC[NH3+])C=C1,-,R944863,M1106968,-,-,1-amino-2-(p-methyl)benzylaminoethane,Koerner,charochkina,A5793,-,-,-,6.51,Log unit,25,?C,N(Cc1ccc(cc1)C)CC[NH3+],5
CSCCN,-,R944864,M117803,-,-,1-amino-2-methylthioethane,Koerner,charochkina,A5793,-,-,-,9.49,Log unit,25,?C,NCCSC,4
NCCNCCC1=CC=CC=C1,-,R944865,M1106969,-,-,1-amino-2-phenethylaminoethane,Koerner,charochkina,A5793,-,-,-,9.14,Log unit,25,?C,N(CCc1ccccc1)CCN,6
NCC[NH2+]CCC1=CC=CC=C1,-,R944866,M1106969,-,-,1-amino-2-phenethylaminoethane,Koerner,charochkina,A5793,-,-,-,6.9,Log unit,25,?C,NCC[NH2+]CCc1ccccc1,9
CCC[NH2+]CCN,-,R944867,M65417,-,-,1-amino-2-propylaminoethane,Koerner,charochkina,A5793,-,-,-,7.54,Log unit,25,?C,NCC[NH2+]CCC,0
NCC(Cl)(Cl)Cl,-,R944868,M1106970,-,-,"1-amino-2,2,2-trichloro-ethane",Koerner,charochkina,A5793,-,-,-,5.47,Log unit,25,?C,NCC(Cl)(Cl)Cl,5
NCC(F)(F)F,-,R944869,M5591,-,-,"1-amino-2,2,2-trichloro-ethane",Koerner,charochkina,A5793,-,-,-,5.7,Log unit,25,?C,NCC(F)(F)F,5
CCN(CC)CCC(=O)CC1=CC=CC=C1,-,R944870,M1106971,-,-,1-benzylcarbonyl-2-diethylaminoethane,Koerner,charochkina,A5793,-,-,-,9.4,Log unit,25,?C,N(CCC(=O)Cc1ccccc1)(CC)CC,9
CN(C)CCC(=O)CC1=CC=CC=C1,-,R944871,M1106972,-,-,1-benzylcarbonyl-2-dimethylaminoethane,Koerner,charochkina,A5793,-,-,-,8.3,Log unit,25,?C,N(CCC(=O)Cc1ccccc1)(C)C,9
NCCOCCOCCN,-,R944872,M57644,-,-,"1,2-bis(2-amino)ethoxyethane",Koerner,charochkina,A5793,-,-,-,9.58,Log unit,25,?C,NCCOCCOCCN,3
NCCOCCOCC[NH3+],-,R944873,M57644,-,-,"1,2-bis(2-amino)ethoxyethane",Koerner,charochkina,A5793,-,-,-,9.17,Log unit,25,?C,NCCOCCOCC[NH3+],9
[NH3+]CCNCCNCC[NH3+],-,R944874,M18809,-,-,"1,2-bis(2-aminoethyl)aminoethane",Koerner,charochkina,A5793,-,-,-,6.3,Log unit,25,?C,N(CC[NH3+])CCNCC[NH3+],3
[NH3+]CCNCC[NH2+]CC[NH3+],-,R944875,M18809,-,-,"1,2-bis(2-aminoethyl)aminoethane",Koerner,charochkina,A5793,-,-,-,3.6,Log unit,25,?C,N(CC[NH2+]CC[NH3+])CC[NH3+],6
NCCSCCSCCN,-,R944876,M1106973,-,-,"1,2-bis(2-aminoethyl)thioethane",Koerner,charochkina,A5793,-,-,-,9.32,Log unit,25,?C,NCCSCCSCCN,3
NCCSCCSCC[NH3+],-,R944877,M1106973,-,-,"1,2-bis(2-aminoethyl)thioethane",Koerner,charochkina,A5793,-,-,-,8.9,Log unit,25,?C,NCCSCCSCC[NH3+],9
CCN(CCCl)CCCl,-,R944878,M21423,-,-,bis(2-chloroethyl)aminoethane,Koerner,charochkina,A5793,-,-,-,6.665,Log unit,25,?C,N(CCCl)(CCCl)CC,3
COCCN(CCCl)CCCl,-,R944879,M36949,-,-,1-bis(2-chloroethyl)amino-2-methoxyethane,Koerner,charochkina,A5793,-,-,-,5.58,Log unit,25,?C,N(CCCl)(CCCl)CCOC,3
CCCCNCCNCCCC,-,R944880,M73653,-,-,"1,2-bisbutylaminoethane",Koerner,charochkina,A5793,-,-,-,9.9,Log unit,25,?C,N(CCCC)CCNCCCC,0