Smiles,CASRN,Record ID,Molecule ID,External ID,N,Name,Introducer,Modifer,Article ID,PUBMED ID,PAGE,TABLE,pKa,pKa Unit,Temperature,Temperature Unit,Ionizable center smiles,IC group
[O-]C(=O)CCNCCNCCC([O-])=O,-,R938311,M1050767,-,-,"ethylenediamine-N,N'-dipropionic acid",Koerner,charochkina,A5793,-,-,-,9.9,Log unit,25,?C,N(CCC(=O)[O-])CCNCCC(=O)[O-],"{nr2=[5, 8]}"
NC1=C(O)C(=CC(=C1)N(=O)=O)N(=O)=O,-,R939076,M18192,-,-,"2-amino-4,6-dinitro-phenol",Koerner,charochkina,A5793,-,-,-,1,Log unit,25,?C,N(=O)(=O)c1cc(c(O)c(c1)N(=O)=O)N,"{nr2=[5, 8, 11], oh=[0]}"
[NH3+]C(S)S,-,R939355,M1050768,-,-,aminomethanedithioic acid,Koerner,charochkina,A5793,-,-,-,2.95,Log unit,25,?C,SC(S)[NH3+],"{sh=[0, 2]}"
SCCS,-,R939357,M21461,-,-,"1,2-ETHANEDITHIOL",Koerner,charochkina,A5793,-,-,-,9.3,Log unit,25,?C,SCCS,"{sh=[0, 3]}"
[O-]S(=O)(=O)C(CS)CS,-,R939361,M1050769,-,-,"1,3-dimercapto-2-propansulfonic acid",Koerner,charochkina,A5793,-,-,-,9.04,Log unit,25,?C,SCC(S(=O)(=O)[O-])CS,"{sh=[0, 8]}"
CC(C(C)C(O)=O)C(O)=O,-,R943025,M22180,-,-,"rac-alpha,alpha'-dimethylpyrotartaric acid",Koerner,charochkina,A5793,-,-,-,4.1,Log unit,25,?C,OC(=O)C(C(C(=O)O)C)C,"{co2h=[2, 8]}"
CCC(C(CC)C(O)=O)C(O)=O,-,R943030,M24808,-,-,"rac-alpha,alpha'-diethylprotartaric acid",Koerner,charochkina,A5793,-,-,-,3.785,Log unit,25,?C,OC(=O)C(C(C(=O)O)CC)CC,"{co2h=[2, 9]}"
[O-]C(=O)CNCCNCC([O-])=O,-,R943296,M110435,-,-,"ethylenediamine-N,N-diacetic acid",Koerner,charochkina,A5793,-,-,-,9.16,Log unit,25,?C,N(CC(=O)[O-])CCNCC(=O)[O-],"{nr2=[4, 7]}"
[O-]C(=O)CCN(CCN(CCC([O-])=O)CC([O-])=O)CC([O-])=O,-,R943301,M1034164,-,-,"ethylenediamine-N,N'-dipropionic acid-N,N'-diacetic acid",Koerner,charochkina,A5793,-,-,-,9.53,Log unit,25,?C,N(CC(=O)[O-])(CCC(=O)[O-])CCN(CC(=O)[O-])CCC(=O)[O-],"{nr2=[4, 12]}"
CC(O)CO,-,R943939,M2108,-,-,"1,2-propanediol",Koerner,charochkina,A5793,-,-,-,15.1,Log unit,25,?C,OCC(O)C,"{oh=[0, 3]}"
OCC(O)CO,-,R943942,M8486,-,-,"1,2,3-Propanetriol",Koerner,charochkina,A5793,-,-,-,14.7,Log unit,25,?C,OCC(O)CO,"{oh=[0, 3, 5]}"
OC1=CC=CC2=C1C(=O)C1=CC=CC(O)=C1C2=O,-,R944323,M18943,-,-,"1,5-DIHYDROXYANTHRAQUINONE",Koerner,charochkina,A5793,-,-,-,9.8,Log unit,25,?C,Oc1cccc2C(=O)c3c(O)cccc3C(=O)c12,"{oh=[1, 10]}"
CN,-,R944822,M636,-,-,amino-methane,Koerner,charochkina,A5793,-,-,-,10.6385,Log unit,25,?C,NC,{nr2=[0]}
CON,-,R944823,M17315,-,-,O-aminohydroxy-methane,Koerner,charochkina,A5793,-,-,-,4.6,Log unit,25,?C,NOC,{nr2=[0]}
CN(C)Cl,-,R944824,M21041,-,-,N-chloro-N-methylaminomethane,Koerner,charochkina,A5793,-,-,-,0.46,Log unit,25,?C,N(Cl)(C)C,{nr2=[1]}
O[As](O)(=O)C(F)(F)F,-,R937057,M1050610,-,-,trifluoromethylarsonic acid,Koerner,charochkina,A5793,-,-,-,1.4,Log unit,25,?C,O[As](=O)(C(F)(F)F)O,{aso2h=6}
O[As]([O-])(=O)C(F)(F)F,-,R937058,M1050610,-,-,trifluoromethylarsonic acid,Koerner,charochkina,A5793,-,-,-,5.2,Log unit,25,?C,O[As](=O)(C(F)(F)F)[O-],{aso2h=7}
C[As](O)(O)=O,-,R937059,M19201,-,-,Methylarsonic acid,Koerner,charochkina,A5793,-,-,-,3.91,Log unit,25,?C,O[As](=O)(O)C,{aso2h=2}
C[As](O)([O-])=O,-,R937060,M19201,-,-,Methylarsonic acid,Koerner,charochkina,A5793,-,-,-,8,Log unit,25,?C,O[As](=O)([O-])C,{aso2h=2}
C[As](C)(O)=O,-,R937061,M7895,-,-,cacodylic acid,Koerner,charochkina,A5793,-,-,-,6.27,Log unit,25,?C,O[As](=O)(C)C,{aso2h=2}
CC[As](O)(O)=O,-,R937062,M21060,-,-,Ethylarsonic acid,Koerner,charochkina,A5793,-,-,-,4.19,Log unit,25,?C,O[As](=O)(O)CC,{aso2h=2}
CC[As](O)([O-])=O,-,R937063,M21060,-,-,Ethylarsonic acid,Koerner,charochkina,A5793,-,-,-,8.05,Log unit,25,?C,O[As](=O)([O-])CC,{aso2h=2}
CCC[As](O)(O)=O,-,R937064,M18599,-,-,n-Propylarsonic acid,Koerner,charochkina,A5793,-,-,-,4.51,Log unit,25,?C,O[As](=O)(O)CCC,{aso2h=2}
CCC[As](O)([O-])=O,-,R937065,M18599,-,-,n-Propylarsonic acid,Koerner,charochkina,A5793,-,-,-,8.7,Log unit,25,?C,O[As](=O)([O-])CCC,{aso2h=2}
CCCC[As](O)(O)=O,-,R937066,M1050611,-,-,n-butylarsonic acid,Koerner,charochkina,A5793,-,-,-,4.53,Log unit,25,?C,O[As](=O)(O)CCCC,{aso2h=2}
CCCC[As](O)([O-])=O,-,R937067,M1050611,-,-,n-butylarsonic acid,Koerner,charochkina,A5793,-,-,-,8.6,Log unit,25,?C,O[As](=O)([O-])CCCC,{aso2h=2}
CCCCC[As](O)(O)=O,-,R937068,M1050612,-,-,n-pentylarsonic acid,Koerner,charochkina,A5793,-,-,-,4.44,Log unit,25,?C,O[As](=O)(O)CCCCC,{aso2h=2}
CCCCC[As](O)([O-])=O,-,R937069,M1050612,-,-,n-pentylarsonic acid,Koerner,charochkina,A5793,-,-,-,8.7,Log unit,25,?C,O[As](=O)([O-])CCCCC,{aso2h=2}
CCCCCC[As](O)(O)=O,-,R937070,M1050613,-,-,n-hexylarsonic acid,Koerner,charochkina,A5793,-,-,-,4.46,Log unit,25,?C,O[As](=O)(O)CCCCCC,{aso2h=2}
CCCCCC[As](O)([O-])=O,-,R937071,M1050613,-,-,n-hexylarsonic acid,Koerner,charochkina,A5793,-,-,-,8.9,Log unit,25,?C,O[As](=O)([O-])CCCCCC,{aso2h=2}
O[As](O)(=O)CCCl,-,R937072,M1050614,-,-,2-chloroethylarsonic acid,Koerner,charochkina,A5793,-,-,-,4,Log unit,25,?C,O[As](=O)(CCCl)O,{aso2h=5}
O[As]([O-])(=O)CCCl,-,R937073,M1050614,-,-,2-chloroethylarsonic acid,Koerner,charochkina,A5793,-,-,-,7.8,Log unit,25,?C,O[As](=O)(CCCl)[O-],{aso2h=5}
CC(Cl)C[As](O)(O)=O,-,R937074,M1050615,-,-,2-chloro-n-propylarsonic acid,Koerner,charochkina,A5793,-,-,-,4.1,Log unit,25,?C,O[As](=O)(CC(Cl)C)O,{aso2h=6}
CC(Cl)C[As](O)([O-])=O,-,R937075,M1050615,-,-,2-chloro-n-propylarsonic acid,Koerner,charochkina,A5793,-,-,-,8.1,Log unit,25,?C,O[As](=O)(CC(Cl)C)[O-],{aso2h=6}
O[As](O)(=O)CCCCl,-,R937076,M1050616,-,-,3-chloro-n-propylarsonic acid,Koerner,charochkina,A5793,-,-,-,3.93,Log unit,25,?C,O[As](=O)(CCCCl)O,{aso2h=6}
O[As]([O-])(=O)CCCCl,-,R937077,M1050616,-,-,3-chloro-n-propylarsonic acid,Koerner,charochkina,A5793,-,-,-,8.2,Log unit,25,?C,O[As](=O)(CCCCl)[O-],{aso2h=6}
CC(Cl)CC[As](O)(O)=O,-,R937078,M1050617,-,-,3-chloro-n-butylarsonic acid,Koerner,charochkina,A5793,-,-,-,4.2,Log unit,25,?C,O[As](=O)(CCC(Cl)C)O,{aso2h=7}
CC(Cl)CC[As](O)([O-])=O,-,R937079,M1050617,-,-,3-chloro-n-butylarsonic acid,Koerner,charochkina,A5793,-,-,-,8.5,Log unit,25,?C,O[As](=O)(CCC(Cl)C)[O-],{aso2h=7}
CCC(Cl)CC[As](O)(O)=O,-,R937080,M1050618,-,-,3-chloro-n-pentyl-1-arsonic acid,Koerner,charochkina,A5793,-,-,-,4.01,Log unit,25,?C,O[As](=O)(CCC(Cl)CC)O,{aso2h=8}
CCC(Cl)CC[As](O)([O-])=O,-,R937081,M1050618,-,-,3-chloro-n-pentyl-1-arsonic acid,Koerner,charochkina,A5793,-,-,-,8.5,Log unit,25,?C,O[As](=O)(CCC(Cl)CC)[O-],{aso2h=8}
CCCC(Cl)CC[As](O)(O)=O,-,R937082,M1050619,-,-,3-chloro-n-hexyl-1-arsonic acid,Koerner,charochkina,A5793,-,-,-,3.8,Log unit,25,?C,O[As](=O)(CCC(Cl)CCC)O,{aso2h=9}
CCCC(Cl)CC[As](O)([O-])=O,-,R937083,M1050619,-,-,3-chloro-n-hexyl-1-arsonic acid,Koerner,charochkina,A5793,-,-,-,8,Log unit,25,?C,O[As](=O)(CCC(Cl)CCC)[O-],{aso2h=9}
OC(=O)C[As](O)(O)=O,-,R937084,M51433,-,-,arson-acetic acid,Koerner,charochkina,A5793,-,-,-,3.2,Log unit,25,?C,O[As](=O)(O)CC(=O)O,"{aliphatic_carboxylic_acid=7, aso2h=2}"
OC(=O)C[As](O)([O-])=O,-,R937085,M51433,-,-,arson-acetic acid,Koerner,charochkina,A5793,-,-,-,4.7,Log unit,25,?C,OC(=O)C[As](=O)(O)[O-],"{co2h=7, aliphatic_carboxylic_acid=7}"
OC(=O)CCC[As](O)(O)=O,-,R937086,M1050620,-,-,arson-butyric acid,Koerner,charochkina,A5793,-,-,-,3.3,Log unit,25,?C,O[As](=O)(O)CCCC(=O)O,"{aliphatic_carboxylic_acid=9, aso2h=2}"
OC(=O)CCC[As](O)([O-])=O,-,R937087,M1050620,-,-,arson-butyric acid,Koerner,charochkina,A5793,-,-,-,4.9,Log unit,25,?C,OC(=O)CCC[As](=O)(O)[O-],"{co2h=9, aliphatic_carboxylic_acid=9}"
OC(=O)CCCC[As](O)(O)=O,-,R937088,M1050621,-,-,arson-valeric acid,Koerner,charochkina,A5793,-,-,-,3.96,Log unit,25,?C,O[As](=O)(O)CCCCC(=O)O,"{aliphatic_carboxylic_acid=10, aso2h=2}"
OC(=O)CCCC[As](O)([O-])=O,-,R937089,M1050621,-,-,arson-valeric acid,Koerner,charochkina,A5793,-,-,-,4.88,Log unit,25,?C,OC(=O)CCCC[As](=O)(O)[O-],"{co2h=10, aliphatic_carboxylic_acid=10}"
OC(=O)C(=C)[As](O)(O)=O,-,R937090,M1050622,-,-,alpha-arson-acrylic acid,Koerner,charochkina,A5793,-,-,-,3.3,Log unit,25,?C,O[As](=O)(O)C(=C)C(=O)O,"{aliphatic_carboxylic_acid=8, aso2h=2}"
OC(=O)C(=C)[As](O)([O-])=O,-,R937091,M1050622,-,-,alpha-arson-acrylic acid,Koerner,charochkina,A5793,-,-,-,4.23,Log unit,25,?C,OC(=O)C(=C)[As](=O)(O)[O-],"{co2h=8, aliphatic_carboxylic_acid=8}"
O[As]([O-])(=O)C(=C)C([O-])=O,-,R937092,M1050622,-,-,alpha-arson-acrylic acid,Koerner,charochkina,A5793,-,-,-,8.3,Log unit,25,?C,O[As](=O)([O-])C(=C)C(=O)[O-],{aso2h=2}
CC=C(C(O)=O)[As](O)(O)=O,-,R937093,M1050623,-,-,alpha-arson-crotonic acid,Koerner,charochkina,A5793,-,-,-,3.65,Log unit,25,?C,O[As](=O)(O)C(=CC)C(=O)O,"{aliphatic_carboxylic_acid=9, aso2h=2}"
CC=C(C(O)=O)[As](O)([O-])=O,-,R937094,M1050623,-,-,alpha-arson-crotonic acid,Koerner,charochkina,A5793,-,-,-,4.6,Log unit,25,?C,OC(=O)C(=CC)[As](=O)(O)[O-],"{co2h=9, aliphatic_carboxylic_acid=9}"
CC=C(C([O-])=O)[As](O)([O-])=O,-,R937095,M1050623,-,-,alpha-arson-crotonic acid,Koerner,charochkina,A5793,-,-,-,8.45,Log unit,25,?C,O[As](=O)([O-])C(=CC)C(=O)[O-],{aso2h=2}
CC(=CC(O)=O)[As](O)(O)=O,-,R937096,M1050624,-,-,beta-arson-crotonic acid,Koerner,charochkina,A5793,-,-,-,3.5,Log unit,25,?C,O[As](=O)(O)C(=CC(=O)O)C,"{aliphatic_carboxylic_acid=9, aso2h=2}"
CC(=CC(O)=O)[As](O)([O-])=O,-,R937097,M1050624,-,-,beta-arson-crotonic acid,Koerner,charochkina,A5793,-,-,-,4,Log unit,25,?C,OC(=O)C=C([As](=O)(O)[O-])C,"{co2h=9, aliphatic_carboxylic_acid=9}"
CC(=CC([O-])=O)[As](O)([O-])=O,-,R937098,M1050624,-,-,beta-arson-crotonic acid,Koerner,charochkina,A5793,-,-,-,8.5,Log unit,25,?C,O[As](=O)([O-])C(=CC(=O)[O-])C,{aso2h=2}
O[As](O)(=O)C1=CC=CC=C1,-,R937099,M18231,-,-,phenyl-arsonic acid,Koerner,charochkina,A5793,-,-,-,3.9,Log unit,25,?C,O[As](=O)(O)c1ccccc1,{aso2h=2}
O[As]([O-])(=O)C1=CC=CC=C1,-,R937100,M18231,-,-,phenyl-arsonic acid,Koerner,charochkina,A5793,-,-,-,8.18,Log unit,25,?C,O[As](=O)([O-])c1ccccc1,{aso2h=2}
O[As](O)(=O)C1=CC=CC2=C1C=CC=C2,-,R937101,M30231,-,-,alpa-naphthylarsonic acid,Koerner,charochkina,A5793,-,-,-,3.96,Log unit,25,?C,O[As](=O)(O)c1cccc2c1cccc2,{aso2h=2}
O[As]([O-])(=O)C1=CC=CC2=C1C=CC=C2,-,R937102,M30231,-,-,alpa-naphthylarsonic acid,Koerner,charochkina,A5793,-,-,-,8.18,Log unit,25,?C,O[As](=O)([O-])c1cccc2c1cccc2,{aso2h=2}
O[As]([O-])(=O)C1=CC2=C(C=CC=C2)C=C1,-,R937103,M1050625,-,-,beta-naphthylarsonic acid,Koerner,charochkina,A5793,-,-,-,8.13,Log unit,25,?C,O[As](=O)(c1cc2ccccc2cc1)[O-],{aso2h=4}
CC1=CC=CC=C1[As](O)(O)=O,-,R937104,M28873,-,-,o-tolylarsonic acid,Koerner,charochkina,A5793,-,-,-,3.9,Log unit,25,?C,O[As](=O)(O)c1ccccc1C,{aso2h=2}
CC1=CC=CC=C1[As](O)([O-])=O,-,R937105,M28873,-,-,o-tolylarsonic acid,Koerner,charochkina,A5793,-,-,-,8.55,Log unit,25,?C,O[As](=O)([O-])c1ccccc1C,{aso2h=2}
CC1=CC(=CC=C1)[As](O)(O)=O,-,R937106,M30230,-,-,m-Tolylarsonic acid,Koerner,charochkina,A5793,-,-,-,4.12,Log unit,25,?C,O[As](=O)(O)c1cccc(c1)C,{aso2h=2}
CC1=CC(=CC=C1)[As](O)([O-])=O,-,R937107,M30230,-,-,m-Tolylarsonic acid,Koerner,charochkina,A5793,-,-,-,8.3,Log unit,25,?C,O[As](=O)([O-])c1cccc(c1)C,{aso2h=2}
CC1=CC=C(C=C1)[As](O)(O)=O,-,R937108,M28872,-,-,p-Tolylarsonic acid,Koerner,charochkina,A5793,-,-,-,4,Log unit,25,?C,O[As](=O)(O)c1ccc(C)cc1,{aso2h=2}
CC1=CC=C(C=C1)[As](O)([O-])=O,-,R937109,M28872,-,-,p-Tolylarsonic acid,Koerner,charochkina,A5793,-,-,-,8.47,Log unit,25,?C,O[As](=O)([O-])c1ccc(C)cc1,{aso2h=2}
O[As](O)(=O)C1=CC=CC=C1N(=O)=O,-,R937110,M30229,-,-,o-nitrophenylarsonic acid,Koerner,charochkina,A5793,-,-,-,3.67,Log unit,25,?C,O[As](=O)(O)c1ccccc1N(=O)=O,{aso2h=2}
O[As]([O-])(=O)C1=CC=CC=C1N(=O)=O,-,R937111,M30229,-,-,o-nitrophenylarsonic acid,Koerner,charochkina,A5793,-,-,-,8.2,Log unit,25,?C,O[As](=O)([O-])c1ccccc1N(=O)=O,{aso2h=2}
O[As](O)(=O)C1=CC=CC(=C1)N(=O)=O,-,R937112,M22576,-,-,m-Nitrophenylarsonic acid,Koerner,charochkina,A5793,-,-,-,3.71,Log unit,25,?C,O[As](=O)(O)c1cccc(c1)N(=O)=O,{aso2h=2}
O[As]([O-])(=O)C1=CC=CC(=C1)N(=O)=O,-,R937113,M22576,-,-,m-Nitrophenylarsonic acid,Koerner,charochkina,A5793,-,-,-,7.5,Log unit,25,?C,O[As](=O)([O-])c1cccc(c1)N(=O)=O,{aso2h=2}
O[As](O)(=O)C1=CC=C(C=C1)N(=O)=O,-,R937114,M18257,-,-,p-Nitrophenylarsonic acid,Koerner,charochkina,A5793,-,-,-,3.3,Log unit,25,?C,O[As](=O)(O)c1ccc(N(=O)=O)cc1,{aso2h=2}
O[As]([O-])(=O)C1=CC=C(C=C1)N(=O)=O,-,R937115,M18257,-,-,p-Nitrophenylarsonic acid,Koerner,charochkina,A5793,-,-,-,7.5,Log unit,25,?C,O[As](=O)([O-])c1ccc(N(=O)=O)cc1,{aso2h=2}
NC1=C(C=CC=C1)[As](O)([O-])=O,-,R937116,M70599,-,-,o-Aminophenylarsonic acid,Koerner,charochkina,A5793,-,-,-,4.1,Log unit,25,?C,Nc1c([As](=O)(O)[O-])cccc1,{nr2=6}
NC1=C(C=CC=C1)[As](O)([O-])=O,-,R937117,M70599,-,-,o-Aminophenylarsonic acid,Koerner,charochkina,A5793,-,-,-,8.35,Log unit,25,?C,O[As](=O)([O-])c1c(N)cccc1,{aso2h=2}
NC1=CC(=CC=C1)[As](O)(O)=O,-,R937118,M1050626,-,-,m-aminophenylarsonic acid,Koerner,charochkina,A5793,-,-,-,4.35,Log unit,25,?C,O[As](=O)(O)c1cccc(c1)N,{aso2h=2}
NC1=CC(=CC=C1)[As](O)([O-])=O,-,R937119,M1050626,-,-,m-aminophenylarsonic acid,Koerner,charochkina,A5793,-,-,-,8.32,Log unit,25,?C,O[As](=O)([O-])c1cccc(c1)N,{aso2h=2}
NC1=CC=C(C=C1)[As](O)([O-])=O,-,R937120,M18244,-,-,p-Aminophenylarsonic acid,Koerner,charochkina,A5793,-,-,-,4.4,Log unit,25,?C,Nc1ccc([As](=O)(O)[O-])cc1,{nr2=8}
NC1=CC=C(C=C1)[As](O)([O-])=O,-,R937121,M18244,-,-,p-Aminophenylarsonic acid,Koerner,charochkina,A5793,-,-,-,8.6,Log unit,25,?C,O[As](=O)([O-])c1ccc(N)cc1,{aso2h=2}
NC1=CC=C(C2=C1C=CC=C2)[As](O)([O-])=O,-,R937122,M1050627,-,-,p-aminonapthylarsonic acid,Koerner,charochkina,A5793,-,-,-,8.9,Log unit,25,?C,O[As](=O)([O-])c1ccc(N)c2ccccc12,{aso2h=2}
O[As](O)(=O)C1=CC=C(Cl)C=C1,-,R937123,M30311,-,-,p-Chlorophenylarsonic acid,Koerner,charochkina,A5793,-,-,-,3.6,Log unit,25,?C,O[As](=O)(c1ccc(Cl)cc1)O,{aso2h=7}
O[As]([O-])(=O)C1=CC=C(Cl)C=C1,-,R937124,M30311,-,-,p-Chlorophenylarsonic acid,Koerner,charochkina,A5793,-,-,-,7.9,Log unit,25,?C,O[As](=O)(c1ccc(Cl)cc1)[O-],{aso2h=7}
O[As](O)(=O)C1=CC=C(Br)C=C1,-,R937125,M1050628,-,-,p-bromophenylarsonic acid,Koerner,charochkina,A5793,-,-,-,3.85,Log unit,25,?C,O[As](=O)(c1ccc(Br)cc1)O,{aso2h=7}
O[As]([O-])(=O)C1=CC=C(Br)C=C1,-,R937126,M1050628,-,-,p-bromophenylarsonic acid,Koerner,charochkina,A5793,-,-,-,7.9,Log unit,25,?C,O[As](=O)(c1ccc(Br)cc1)[O-],{aso2h=7}
O[As]([O-])(=O)C1=CC=C(I)C=C1,-,R937127,M1050629,-,-,p-iodophenylarsonic acid,Koerner,charochkina,A5793,-,-,-,7.94,Log unit,25,?C,O[As](=O)(c1ccc(I)cc1)[O-],{aso2h=7}
OC(=O)C1=CC=C(C=C1)[As](O)(O)=O,-,R937128,M1050630,-,-,benzoic acid-4-arsonic acid,Koerner,charochkina,A5793,-,-,-,3.15,Log unit,25,?C,O[As](=O)(O)c1ccc(C(=O)O)cc1,"{aliphatic_carboxylic_acid=10, aso2h=2}"
OC(=O)C1=CC=C(C=C1)[As](O)([O-])=O,-,R937129,M1050630,-,-,benzoic acid-4-arsonic acid,Koerner,charochkina,A5793,-,-,-,4.2,Log unit,25,?C,OC(=O)c1ccc([As](=O)(O)[O-])cc1,"{co2h=10, aliphatic_carboxylic_acid=10}"
O[As]([O-])(=O)C1=CC=C(C=C1)C([O-])=O,-,R937130,M1050630,-,-,benzoic acid-4-arsonic acid,Koerner,charochkina,A5793,-,-,-,8.39,Log unit,25,?C,O[As](=O)([O-])c1ccc(C(=O)[O-])cc1,{aso2h=2}
OC1=CC=C(C=C1)[As](O)(O)=O,-,R937131,M18235,-,-,p-Hydroxyphenylarsonic acid,Koerner,charochkina,A5793,-,-,-,4.2,Log unit,25,?C,O[As](=O)(O)c1ccc(O)cc1,{aso2h=2}
OC1=CC=C(C=C1)[As](O)([O-])=O,-,R937132,M18235,-,-,p-Hydroxyphenylarsonic acid,Koerner,charochkina,A5793,-,-,-,8.3,Log unit,25,?C,O[As](=O)([O-])c1ccc(O)cc1,{aso2h=2}
OC1=CC=C(C=C1)[As]([O-])([O-])=O,-,R937133,M18235,-,-,p-Hydroxyphenylarsonic acid,Koerner,charochkina,A5793,-,-,-,10.05,Log unit,25,?C,Oc1ccc([As](=O)([O-])[O-])cc1,{oh=8}
O[As](O)(=O)C1=CC=C(Cl)C=C1Cl,-,R937134,M1050631,-,-,"2,4-dichlorophenylarsonic acid",Koerner,charochkina,A5793,-,-,-,3.44,Log unit,25,?C,O[As](=O)(c1c(Cl)cc(Cl)cc1)O,{aso2h=9}
CC(=O)NC1=CC=C(C=C1)[As](O)(O)=O,-,R937135,M21956,-,-,p-acetylaminophenylarsonic acid,Koerner,charochkina,A5793,-,-,-,4,Log unit,25,?C,O[As](=O)(O)c1ccc(NC(=O)C)cc1,{aso2h=2}
CC(=O)NC1=CC=C(C=C1)[As](O)([O-])=O,-,R937136,M21956,-,-,p-acetylaminophenylarsonic acid,Koerner,charochkina,A5793,-,-,-,8.3,Log unit,25,?C,O[As](=O)([O-])c1ccc(NC(=O)C)cc1,{aso2h=2}
OC1=CC=C(C=C1)N=NC1=CC=C(C=C1)[As](O)([O-])=O,-,R937137,M1050632,-,-,4-(4-hydrxyphenylazo)phenylarsonic acid,Koerner,charochkina,A5793,-,-,-,7.6,Log unit,25,?C,O[As](=O)(c1ccc(cc1)N=Nc1ccc(O)cc1)[O-],{aso2h=5}
O[Se](=O)(=O)C1=CC=CC=C1,-,R937138,M1050633,-,-,phenylselenoic acid,Koerner,charochkina,A5793,-,-,-,4.79,Log unit,25,?C,O[Se](=O)(=O)c1ccccc1,{seo3h=3}
CC1=CC(=CC=C1)[Se](O)(=O)=O,-,R937139,M1050634,-,-,m-tolylselonoic acid,Koerner,charochkina,A5793,-,-,-,4.8,Log unit,25,?C,O[Se](=O)(=O)c1cccc(c1)C,{seo3h=3}
CC1=CC=C(C=C1)[Se](O)(=O)=O,-,R937140,M1050635,-,-,p-tolylselenoic acid,Koerner,charochkina,A5793,-,-,-,4.88,Log unit,25,?C,O[Se](=O)(=O)c1ccc(C)cc1,{seo3h=3}
O[Se](=O)(=O)C1=CC(F)=CC=C1,-,R937141,M1050636,-,-,m-fluorophenylselenoic acid,Koerner,charochkina,A5793,-,-,-,4.34,Log unit,25,?C,O[Se](=O)(=O)c1cc(F)ccc1,{seo3h=10}
O[Se](=O)(=O)C1=CC=C(F)C=C1,-,R937142,M1050637,-,-,p-fluorophenylselenoic acid,Koerner,charochkina,A5793,-,-,-,4.5,Log unit,25,?C,O[Se](=O)(=O)c1ccc(F)cc1,{seo3h=8}
O[Se](=O)(=O)C1=CC(Cl)=CC=C1,-,R937143,M1050638,-,-,m-chlorophenylselenoic acid,Koerner,charochkina,A5793,-,-,-,4.47,Log unit,25,?C,O[Se](=O)(=O)c1cc(Cl)ccc1,{seo3h=10}
O[Se](=O)(=O)C1=CC=C(Cl)C=C1,-,R937144,M1050639,-,-,p-chlorophenylselenoic acid,Koerner,charochkina,A5793,-,-,-,4.48,Log unit,25,?C,O[Se](=O)(=O)c1ccc(Cl)cc1,{seo3h=8}
O[Se](=O)(=O)C1=CC(Br)=CC=C1,-,R937145,M1050640,-,-,m-bromophenylselenoic acid,Koerner,charochkina,A5793,-,-,-,4.43,Log unit,25,?C,O[Se](=O)(=O)c1cc(Br)ccc1,{seo3h=10}
O[Se](=O)(=O)C1=CC=C(Br)C=C1,-,R937146,M1050641,-,-,p-bromophenylarsonic acid,Koerner,charochkina,A5793,-,-,-,4.5,Log unit,25,?C,O[Se](=O)(=O)c1ccc(Br)cc1,{seo3h=8}
COC1=CC(=CC=C1)[Se](O)(=O)=O,-,R937147,M1050642,-,-,m-methoxyphenylselenoic acid,Koerner,charochkina,A5793,-,-,-,4.65,Log unit,25,?C,O[Se](=O)(=O)c1cccc(c1)OC,{seo3h=3}
COC1=CC=C(C=C1)[Se](O)(=O)=O,-,R937148,M1050643,-,-,p-methoxyphenylselenoic acid,Koerner,charochkina,A5793,-,-,-,5.05,Log unit,25,?C,O[Se](=O)(=O)c1ccc(OC)cc1,{seo3h=3}
O[Se](=O)(=O)C1=CC=CC(=C1)N(=O)=O,-,R937149,M1050644,-,-,m-nitrophenylselenoic acid,Koerner,charochkina,A5793,-,-,-,4.07,Log unit,25,?C,O[Se](=O)(=O)c1cccc(c1)N(=O)=O,{seo3h=3}
O[Se](=O)(=O)C1=CC=C(C=C1)N(=O)=O,-,R937150,M1050645,-,-,p-nitrophenylselenoic acid,Koerner,charochkina,A5793,-,-,-,4,Log unit,25,?C,O[Se](=O)(=O)c1ccc(N(=O)=O)cc1,{seo3h=3}
O[Se](=O)(=O)C1=CC=CC=C1C1=CC=CC=C1,-,R937151,M1050646,-,-,2-biphenylselenoic acid,Koerner,charochkina,A5793,-,-,-,4.67,Log unit,25,?C,O[Se](=O)(=O)c1ccccc1c1ccccc1,{seo3h=3}
O[Se](=O)(=O)C1=CC=CC(=C1)C1=CC=CC=C1,-,R937152,M1050647,-,-,3-biphenylselenoic acid,Koerner,charochkina,A5793,-,-,-,4.87,Log unit,25,?C,O[Se](=O)(=O)c1cccc(c1)c1ccccc1,{seo3h=3}
O[Se](=O)(=O)C1=CC=C(C=C1)C1=CC=CC=C1,-,R937153,M1050648,-,-,4-biphenylselenoic acid,Koerner,charochkina,A5793,-,-,-,4.53,Log unit,25,?C,O[Se](=O)(=O)c1ccc(c2ccccc2)cc1,{seo3h=3}
O[Se](=O)(=O)C1=CC=C(OC2=CC=CC=C2)C=C1,-,R937154,M1050649,-,-,p-phenoxyphenylselenoic acid,Koerner,charochkina,A5793,-,-,-,4.88,Log unit,25,?C,O[Se](=O)(=O)c1ccc(Oc2ccccc2)cc1,{seo3h=3}
OB(O)O,-,R937155,M5551,-,-,BORIC ACID,Koerner,charochkina,A5793,-,-,-,9.14,Log unit,25,?C,O[B](O)O,{bo2h2=1}
NC1=CC=CC=C1B(O)O,-,R937156,M134435,-,-,o-aminophenylboric acid,Koerner,charochkina,A5793,-,-,-,4.57,Log unit,25,?C,Nc1c([B](O)O)cccc1,{nr2=9}
OP([O-])(=O)CCCNC1=CC=CC=C1,-,R936957,M1050534,-,-,3-phenylamino-n-propyl-phosphonic acid,Koerner,charochkina,A5793,-,-,-,7.15,Log unit,25,?C,OP(=O)(CCCNc1ccccc1)[O-],{po2h=12}
OP(O)(=O)C1=CC=CC=C1,-,R936958,M25385,-,-,PHENYLPHOSPHONIC ACID,Koerner,charochkina,A5793,-,-,-,2.015,Log unit,25,?C,OP(=O)(O)c1ccccc1,{po2h=2}
OP([O-])(=O)C1=CC=CC=C1,-,R936959,M25385,-,-,PHENYLPHOSPHONIC ACID,Koerner,charochkina,A5793,-,-,-,7.07,Log unit,25,?C,OP(=O)([O-])c1ccccc1,{po2h=2}
CC1=CC=CC=C1P(O)(O)=O,-,R936960,M1050535,-,-,o-tolylphosphonic acid,Koerner,charochkina,A5793,-,-,-,2.1,Log unit,25,?C,OP(=O)(O)c1ccccc1C,{po2h=2}
CC1=CC=CC=C1P(O)([O-])=O,-,R936961,M1050535,-,-,o-tolylphosphonic acid,Koerner,charochkina,A5793,-,-,-,7.68,Log unit,25,?C,OP(=O)([O-])c1ccccc1C,{po2h=2}
CC1=CC(=CC=C1)P(O)(O)=O,-,R936962,M1050536,-,-,m-tolylphosphonic acid,Koerner,charochkina,A5793,-,-,-,1.88,Log unit,25,?C,OP(=O)(O)c1cccc(c1)C,{po2h=2}