Smiles,CASRN,Record ID,Molecule ID,External ID,N,Name,Introducer,Modifer,Article ID,PUBMED ID,PAGE,TABLE,pKa,pKa Unit,Temperature,Temperature Unit,Ionizable center smiles,IC group
CC1=C([S-])C2=C(C=CC=N2)C=C1,-,R946544,M1106925,-,-,8-mercapto-7-methylquinoline,Koerner,charochkina,A5793,-,-,-,9.27,Log unit,25,?C,n1c2c([S-])c(ccc2ccc1)C,7
SC1CCCC2CCC([NH2+]C12)C1=CC=CC=C1,-,R946545,M1107323,-,-,8-mercapto-2-phenylquinoline,Koerner,charochkina,A5793,-,-,-,1.28,Log unit,25,?C,SC1[CH][CH][CH]C2C1[NH2+]C([CH][CH]2)c1ccccc1,0
[S-]C1=CC=CC2=C1N=C(C=C2)C1=CC=CC=C1,-,R946546,M1106926,-,-,8-mercapto-2-phenylquinoline,Koerner,charochkina,A5793,-,-,-,7.87,Log unit,25,?C,n1c2c([S-])cccc2ccc1c1ccccc1,6
[O-]S(=O)(=O)C1CCC(S)C2[NH2+]CCCC12,-,R946547,M1107324,-,-,8-mercapto-5-sulphoquinoline,Koerner,charochkina,A5793,-,-,-,0.92,Log unit,25,?C,SC1[CH][CH]C(S(=O)(=O)[O-])C2C1[NH2+][CH][CH][CH]2,0
[O-]S(=O)(=O)C1=CC=C([S-])C2=C1C=CC=N2,-,R946548,M1106927,-,-,8-mercapto-5-sulphoquinoline,Koerner,charochkina,A5793,-,-,-,7.63,Log unit,25,?C,n1c2c([S-])ccc(S(=O)(=O)[O-])c2ccc1,10
CC1CCC2C([NH2+]1)C(O)C(CC2S([O-])(=O)=O)N(=O)=O,-,R946549,M1107325,-,-,2-methyl-8-hydroxy-7-nitro-5-sulphoquinoline,Koerner,charochkina,A5793,-,-,-,0.7,Log unit,25,?C,OC1C([CH]C(S(=O)(=O)[O-])C2[CH][CH]C(C)[NH2+]C12)N(=O)=O,8
CC1=NC2=C(C=C1)C(=CC(=C2[O-])N(=O)=O)S([O-])(=O)=O,-,R946550,M1106928,-,-,2-methyl-8-hydroxy-7-nitro-5-sulphoquinoline,Koerner,charochkina,A5793,-,-,-,6.24,Log unit,25,?C,n1c2c(c(S(=O)(=O)[O-])cc(c2[O-])N(=O)=O)ccc1C,18
COC1=NC2=CC=CC=C2C=C1,-,R946551,M418985,-,-,2-methoxyquinoline,Koerner,charochkina,A5793,-,-,-,3.16,Log unit,25,?C,n1c2ccccc2ccc1OC,8
COC1=CC=NC2=C1C=CC=C2,-,R946552,M22333,-,-,4-Methoxyquinoline,Koerner,charochkina,A5793,-,-,-,6.45,Log unit,25,?C,n1ccc(OC)c2c1cccc2,0
COC1=CC2=C(C=C1)N=CC=C2,-,R946553,M3764,-,-,6-Methoxyquinoline,Koerner,charochkina,A5793,-,-,-,5.03,Log unit,25,?C,n1cccc2c1ccc(OC)c2,0
COC1=CC=CC2=C1N=CC=C2,-,R946554,M14195,-,-,8-Methoxyquinoline,Koerner,charochkina,A5793,-,-,-,5,Log unit,25,?C,n1cccc2c1c(ccc2)OC,0
COC1=CC=CC2=C1N=C(C)C=C2,-,R946555,M728393,-,-,8-methoxy-2-methylquinoline,Koerner,charochkina,A5793,-,-,-,5.7,Log unit,25,?C,n1c(ccc2c1c(ccc2)OC)C,0
COC(=O)C1=NC2=CC=CC=C2C=C1,-,R946556,M142630,-,-,2-methoxycarbonylquinoline,Koerner,charochkina,A5793,-,-,-,1.7545,Log unit,25,?C,n1c2ccccc2ccc1C(=O)OC,8
COC(=O)C1=CC2=C(C=C1)N=CC=C2,-,R946557,M110466,-,-,6-methoxycarbonylquinoline,Koerner,charochkina,A5793,-,-,-,3.8,Log unit,25,?C,n1cccc2c1ccc(C(=O)OC)c2,0
CC1=NC2=C(C=CC=C2)C=C1,-,R946558,M10488,-,-,2-METHYLQUINOLINE,Koerner,charochkina,A5793,-,-,-,5.7,Log unit,25,?C,n1c(ccc2c1cccc2)C,0
CC1=CC2=C(C=CC=C2)N=C1,-,R946559,M22441,-,-,3-METHYLQUINOLINE,Koerner,charochkina,A5793,-,-,-,5.155,Log unit,25,?C,n1cc(cc2c1cccc2)C,0
CC1=CC=NC2=C1C=CC=C2,-,R946560,M20828,-,-,4-METHYLQUINOLINE,Koerner,charochkina,A5793,-,-,-,5.63,Log unit,25,?C,n1ccc(C)c2c1cccc2,0
CC1=CC=CC2=C1C=CC=N2,-,R946561,M32128,-,-,5-Methylquinoline,Koerner,charochkina,A5793,-,-,-,4.91,Log unit,25,?C,n1cccc2c1cccc2C,0
CC1=CC2=C(C=C1)N=CC=C2,-,R946562,M6494,-,-,6-Methylquinoline,Koerner,charochkina,A5793,-,-,-,5.185,Log unit,25,?C,n1cccc2c1ccc(C)c2,0
CC1=CC2=C(C=CC=N2)C=C1,-,R946563,M5503,-,-,7-methylquinoline,Koerner,charochkina,A5793,-,-,-,5.315,Log unit,25,?C,n1cccc2c1cc(cc2)C,0
CC1=CC=CC2=C1N=CC=C2,-,R946564,M5225,-,-,8-Methylquinoline,Koerner,charochkina,A5793,-,-,-,4.98,Log unit,25,?C,n1cccc2c1c(ccc2)C,0
ON=CC1=CC=NC2=C1C=CC=C2,-,R946565,M1106929,-,-,4-aldoximequinoline,Koerner,charochkina,A5793,-,-,-,4.52,Log unit,25,?C,n1ccc(C=NO)c2ccccc12,0
CSC1=CC=CC2=C1N=C(C)C=C2,-,R946566,M1106930,-,-,2-methyl-8-methylthioquinoline,Koerner,charochkina,A5793,-,-,-,4.08,Log unit,25,?C,n1c2c(SC)cccc2ccc1C,7
NC1=CC(N)=C(O)C2=C1C=CC=N2,-,R946567,M399336,-,-,"5,7-diamino-8-hydroxyquinoline",Koerner,charochkina,A5793,-,-,-,6.96,Log unit,25,?C,n1cccc2c1c(O)c(cc2N)N,0
NC1=CC(N)=C(O)C2=C1C=CC=N2,-,R946568,M399336,-,-,"5,7-diamino-8-hydroxyquinoline",Koerner,charochkina,A5793,-,-,-,10.83,Log unit,25,?C,Oc1c2ncccc2c(cc1N)N,6
CC1=NC(C)=C2C=CC=CC2=N1,-,R946569,M1106931,-,-,"2,4-dimethylquinazoline",Koerner,charochkina,A5793,-,-,-,3.58,Log unit,25,?C,n1c(nc2ccccc2c1C)C,0
OC1=CC=CC2=NC=NC=C12,-,R946570,M1107326,-,-,5-hydroxyquinazoline,Koerner,charochkina,A5793,-,-,-,7.41,Log unit,25,?C,Oc1c2cncnc2ccc1,10
OC1=CC2=CN=CN=C2C=C1,-,R946571,M1107327,-,-,6-hydroxyquinazoline,Koerner,charochkina,A5793,-,-,-,8.21,Log unit,25,?C,Oc1cc2cncnc2cc1,10
OC1=CC2=NC=NC=C2C=C1,-,R946572,M1107328,-,-,7-hydroxyquinazoline,Koerner,charochkina,A5793,-,-,-,7.39,Log unit,25,?C,Oc1cc2ncncc2cc1,6
OC1=CC=CC2=CN=CN=C12,-,R946573,M32068,-,-,8-Hydroxyquinazoline,Koerner,charochkina,A5793,-,-,-,8.67,Log unit,25,?C,Oc1c2ncncc2ccc1,6
CC1=NC(C)=C2C=CC=C(O)C2=N1,-,R946574,M1106932,-,-,"8-hydroxy-2,4-dimethylquinazoline",Koerner,charochkina,A5793,-,-,-,3.79,Log unit,25,?C,n1c(nc2c(cccc2c1C)O)C,0
CC1=NC(C)=C2C=CC=C(O)C2=N1,-,R946575,M1106932,-,-,"8-hydroxy-2,4-dimethylquinazoline",Koerner,charochkina,A5793,-,-,-,9.41,Log unit,25,?C,Oc1c2nc(nc(C)c2ccc1)C,6
CC1=C2C=CC=C(O)C2=NC=N1,-,R946576,M46729,-,-,8-hydroxy-4-methylquinazoline,Koerner,charochkina,A5793,-,-,-,8.7,Log unit,25,?C,Oc1c2ncnc(C)c2ccc1,6
C1=CC2=C(C=C1)N=CC=N2,-,R946577,M13197,-,-,Quinoxaline,Koerner,charochkina,A5793,-,-,-,0.4,Log unit,25,?C,n1ccnc2ccccc12,0
COC1=NC2=C(C=CC=C2)N=C1OC,-,R946578,M1106935,-,-,"2,3-dimethoxyquinoxaline",Koerner,charochkina,A5793,-,-,-,-0.85,Log unit,25,?C,n1c(OC)c(OC)nc2ccccc12,0
OC1=CC=CC2=C1N=CC=N2,-,R946579,M34059,-,-,5-hydroxyquinoxaline,Koerner,charochkina,A5793,-,-,-,0.9,Log unit,25,?C,n1ccnc2c(O)cccc12,0
OC1=CC=CC2=C1N=CC=N2,-,R946580,M34059,-,-,5-hydroxyquinoxaline,Koerner,charochkina,A5793,-,-,-,8.68,Log unit,25,?C,Oc1c2nccnc2ccc1,6
OC1=CC2=C(C=C1)N=CC=N2,-,R946581,M1107329,-,-,6-hydroxyquinoxaline,Koerner,charochkina,A5793,-,-,-,7.94,Log unit,25,?C,Oc1cc2nccnc2cc1,7
CCC1=C2C=CC=CC2=NC=N1,-,R946582,M1106936,-,-,4-ethylquinazoline,Koerner,charochkina,A5793,-,-,-,2.895,Log unit,25,?C,n1cnc2ccccc2c1CC,0
CCSC1=CC2=C(C=C1)C=NC=N2,-,R946583,M1106937,-,-,7-ethylthioquinazoline,Koerner,charochkina,A5793,-,-,-,3.11,Log unit,25,?C,n1c2cc(SCC)ccc2cnc1,6
CC(C)C1=NC=NC2=CC=CC=C12,-,R946584,M1106938,-,-,4-isopropylquinazoline,Koerner,charochkina,A5793,-,-,-,2.885,Log unit,25,?C,n1c(c2ccccc2nc1)C(C)C,5
COC1=C(C)C2=C(C=C1)C=NC=N2,-,R946585,M1106939,-,-,7-methoxy-8-methylquinazoline,Koerner,charochkina,A5793,-,-,-,3.78,Log unit,25,?C,n1cncc2c1c(c(cc2)OC)C,0
C1=CC2=C(C=NC=N2)N=C1,-,R946586,M1106940,-,-,"1,3,5-triazanaphthalene",Koerner,charochkina,A5793,-,-,-,1.36,Log unit,25,?C,n1cncc2c1cccn2,0
C1=CC2=C(C=N1)N=CN=C2,-,R946587,M1106941,-,-,"1,3,7-triazanaphthalene",Koerner,charochkina,A5793,-,-,-,1.81,Log unit,25,?C,n1cncc2c1cncc2,0
C1=CC2=C(N=C1)N=CN=C2,-,R946588,M1106942,-,-,"1,3,8-triazanaphthalene",Koerner,charochkina,A5793,-,-,-,1,Log unit,25,?C,n1cncc2c1nccc2,0
CC1=NC2=C(C=CN=C2)N=C1,-,R946589,M1106943,-,-,"3-methyl-1,4,6-triazanaphthalene",Koerner,charochkina,A5793,-,-,-,3.315,Log unit,25,?C,n1cc(nc2c1ccnc2)C,0
C1=CC2=CC3=CC=CC=C3N=C2C=C1,-,R946590,M2399,-,-,acridine,Koerner,charochkina,A5793,-,-,-,5.15,Log unit,25,?C,n1c2ccccc2cc2c1cccc2,4
NC1=CC=CC2=NC3=CC=CC=C3C=C12,-,R946591,M6324,-,-,1-aminoacridine,Koerner,charochkina,A5793,-,-,-,6,Log unit,25,?C,n1c2ccccc2cc2c1cccc2N,4
NC1=CC2=CC3=CC=CC=C3N=C2C=C1,-,R946592,M11366,-,-,2-aminoacridine,Koerner,charochkina,A5793,-,-,-,5.84,Log unit,25,?C,n1c2ccccc2cc2c1ccc(c2)N,4
NC1=CC2=NC3=CC=CC=C3C=C2C=C1,-,R946593,M3208,-,-,3-aminoacridine,Koerner,charochkina,A5793,-,-,-,8,Log unit,25,?C,n1c2ccccc2cc2c1cc(N)cc2,4
NC1=CC=CC2=CC3=CC=CC=C3N=C12,-,R946594,M9470,-,-,4-aminoacridine,Koerner,charochkina,A5793,-,-,-,4.36,Log unit,25,?C,n1c2ccccc2cc2c1c(ccc2)N,4
NC1=C2C=CC=CC2=NC2=CC=CC=C12,-,R946595,M12974,-,-,9-AMINOACRIDINE,Koerner,charochkina,A5793,-,-,-,9.95,Log unit,25,?C,n1c2ccccc2c(N)c2c1cccc2,4
NC1=CC2=NC3=C(C=C(C=C3)C([O-])=O)C=C2C=C1,-,R946596,M1106944,-,-,3-amino-7-carboxyacridine,Koerner,charochkina,A5793,-,-,-,8,Log unit,25,?C,n1c2c(ccc(c2)N)cc2cc(ccc12)C(=O)[O-],14
NC1=CC2=C(C=C1)C=C1C=CC(Cl)=CC1=N2,-,R946597,M35741,-,-,3-amino-6-chloroacridine,Koerner,charochkina,A5793,-,-,-,7.22,Log unit,25,?C,n1c2cc(Cl)ccc2cc2c1cc(cc2)N,4
NC1=CC2=NC3=CC=C(Cl)C=C3C=C2C=C1,-,R946598,M1106945,-,-,3-amino-7-chloroacridine,Koerner,charochkina,A5793,-,-,-,6.91,Log unit,25,?C,n1c2ccc(Cl)cc2cc2c1cc(N)cc2,5
NC1=CC2=C(C=C1)C(Cl)=C1C=CC=CC1=N2,-,R946599,M246077,-,-,3-amino-9-chloroacridine,Koerner,charochkina,A5793,-,-,-,6.7,Log unit,25,?C,n1c2c(c(Cl)c3ccc(N)cc13)cccc2,8
NC1=C2C(O)=CC=CC2=NC2=CC=CC=C12,-,R946600,M1107330,-,-,9-amino-1-hydroxyacridine,Koerner,charochkina,A5793,-,-,-,5.785,Log unit,25,?C,Oc1c2c(c3ccccc3nc2ccc1)N,15
NC1=C2C=CC(O)=CC2=NC2=CC=CC=C12,-,R946601,M35742,-,-,9-amino-3-hydroxyacridine,Koerner,charochkina,A5793,-,-,-,6.885,Log unit,25,?C,Oc1cc2nc3ccccc3c(N)c2cc1,8
COC(=O)C1=CC2=C(C=C1)N=C1C=C(N)C=CC1=C2,-,R946602,M1106946,-,-,3-amino-7-methoxycarbonylacridine,Koerner,charochkina,A5793,-,-,-,7.1,Log unit,25,?C,n1c2c(ccc(c2)N)cc2cc(ccc12)C(=O)OC,15
NC1=C2C=CC=CC2=NC2=CC(Cl)=CC=C12,-,R946603,M28211,-,-,9-amino-3-chloroacridine,Koerner,charochkina,A5793,-,-,-,9.29,Log unit,25,?C,n1c2cc(Cl)ccc2c(N)c2ccccc12,12
COC1=CC2=C(C=C1)N=C1C=C(Cl)C=CC1=C2N,-,R946604,M28345,-,-,9-amino-3-chloro-7-methoxyacridine,Koerner,charochkina,A5793,-,-,-,8.94,Log unit,25,?C,n1c2cc(ccc2c(c2cc(ccc12)OC)N)Cl,6
COC1=CC2=C(N)C3=CC=CC=C3N=C2C=C1,-,R946605,M57783,-,-,9-amino-2-methoxyacridine,Koerner,charochkina,A5793,-,-,-,9.61,Log unit,25,?C,n1c2ccccc2c(N)c2c1ccc(c2)OC,4
CC1=C2N=C3C(N)=CC=CC3=CC2=CC=C1,-,R946606,M477378,-,-,4-amino-5-methylacridine,Koerner,charochkina,A5793,-,-,-,3.9,Log unit,25,?C,n1c2c(cccc2cc2c1c(ccc2)N)C,5
CC1=CC=CC2=C(N)C3=CC=CC=C3N=C12,-,R946607,M35738,-,-,9-amino-4-methylacridine,Koerner,charochkina,A5793,-,-,-,10.24,Log unit,25,?C,n1c2ccccc2c(N)c2c1c(ccc2)C,4
NC1=C2CCCCC2=NC2=CC=CC=C12,-,R946608,M13615,-,-,"9-amino-1,2,3,4-tetrahydroacridine",Koerner,charochkina,A5793,-,-,-,9.95,Log unit,25,?C,n1c2ccccc2c(N)c2c1CCCC2,4
[O-]C(=O)C1=CC2=CC3=CC=CC=C3N=C2C=C1,-,R946609,M1106947,-,-,2-carboxyacridine,Koerner,charochkina,A5793,-,-,-,5.4,Log unit,25,?C,n1c2ccccc2cc2c1ccc(c2)C(=O)[O-],4
OC(=O)C1CCC2[NH2+]C3CCCCC3CC2C1,-,R946610,M1107331,-,-,2-carboxyacridine,Koerner,charochkina,A5793,-,-,-,2.9,Log unit,25,?C,OC(=O)C1[CH]C2[CH]C3[CH][CH][CH][CH]C3[NH2+]C2[CH][CH]1,16
[O-]C(=O)C1=CC=CC2=CC3=CC=CC=C3N=C12,-,R946611,M1106948,-,-,4-carboxyacridine,Koerner,charochkina,A5793,-,-,-,7.7,Log unit,25,?C,n1c2ccccc2cc2c1c(ccc2)C(=O)[O-],4
OC(=[O-])C1=C2C=CC=CC2=NC2=CC=CC=C12,-,R946612,M1106949,-,-,9-carboxyacridine,Koerner,charochkina,A5793,-,-,-,5,Log unit,25,?C,n1c2ccccc2c(c2c1cccc2)C(=[O-])O,4
NC1=CC2=C(C=C1)N=C1C=C(N)C=CC1=C2,-,R946613,M24179,-,-,"2,6-diaminoacrdine",Koerner,charochkina,A5793,-,-,-,8.06,Log unit,25,?C,n1c2c(ccc(c2)N)cc2cc(ccc12)N,12
NC1=CC2=CC3=C(C=CC(N)=C3)N=C2C=C1,-,R946614,M44123,-,-,"2,7-Diaminoacridine",Koerner,charochkina,A5793,-,-,-,6.14,Log unit,25,?C,n1c2ccc(cc2cc2c1ccc(N)c2)N,3
NC1=CC2=NC3=C(C=CC(N)=C3)C=C2C=C1,-,R946615,M12187,-,-,"3,6-Diaminoacridine",Koerner,charochkina,A5793,-,-,-,9.625,Log unit,25,?C,n1c2c(ccc(c2)N)cc2ccc(N)cc12,12
NC1=CC2=CC3=C(C=C(N)C=C3)N=C2C=C1,-,R946616,M24179,-,-,"3,7-diaminoacridine",Koerner,charochkina,A5793,-,-,-,8.11,Log unit,25,?C,n1c2ccc(cc2cc2c1cc(cc2)N)N,3
NC1=CC2=NC3=CC=CC=C3C(N)=C2C=C1,-,R946617,M35736,-,-,"3,9-Diaminoacridine",Koerner,charochkina,A5793,-,-,-,11.46,Log unit,25,?C,n1c2ccccc2c(N)c2c1cc(N)cc2,4
NC1=CC=CC2=CC3=CC=CC(N)=C3N=C12,-,R946618,M244226,-,-,"4,5-diaminoacridine",Koerner,charochkina,A5793,-,-,-,2.55,Log unit,25,?C,n1c2c(cccc2cc2c1c(ccc2)N)N,5
CC1=CC=CC2=CC3=CC=CC(C)=C3N=C12,-,R946619,M1106950,-,-,"4,5-dimethylacridine",Koerner,charochkina,A5793,-,-,-,4.51,Log unit,25,?C,n1c2c(cccc2cc2c1c(ccc2)C)C,5
OC1=CC=CC2=NC3=CC=CC=C3C=C12,-,R946620,M1106951,-,-,1-hydroxyacridine,Koerner,charochkina,A5793,-,-,-,5.35,Log unit,25,?C,n1c2ccccc2cc2c1cccc2O,4
OC1=CC2=CC3=CC=CC=C3N=C2C=C1,-,R946621,M31686,-,-,2-Hydroxyacridine,Koerner,charochkina,A5793,-,-,-,5.22,Log unit,25,?C,n1c2ccccc2cc2c1ccc(c2)O,4
OC1=CC2=CC3=CC=CC=C3N=C2C=C1,-,R946622,M31686,-,-,2-Hydroxyacridine,Koerner,charochkina,A5793,-,-,-,8.6,Log unit,25,?C,Oc1cc2cc3ccccc3nc2cc1,14
OC1=CC=CC2=CC3=CC=CC=C3N=C12,-,R946623,M117525,-,-,4-hydroxyacridine,Koerner,charochkina,A5793,-,-,-,5.07,Log unit,25,?C,n1c2ccccc2cc2c1c(ccc2)O,4
OC1=CC=CC2=CC3=CC=CC=C3N=C12,-,R946624,M117525,-,-,4-hydroxyacridine,Koerner,charochkina,A5793,-,-,-,9.7,Log unit,15,?C,Oc1c2nc3ccccc3cc2ccc1,8
COC1=CC2=CC3=CC=CC=C3N=C2C=C1,-,R946625,M57748,-,-,2-methoxyacridine,Koerner,charochkina,A5793,-,-,-,5.47,Log unit,25,?C,n1c2ccccc2cc2c1ccc(c2)OC,4
COC1=CC=CC2=CC3=CC=CC=C3N=C12,-,R946626,M1106952,-,-,4-methoxyacridine,Koerner,charochkina,A5793,-,-,-,5.26,Log unit,25,?C,n1c2ccccc2cc2c1c(ccc2)OC,4
COC(=O)C1=C2C=CC=CC2=NC2=CC=CC=C12,-,R946627,M29931,-,-,9-methoxycarbonylacridine,Koerner,charochkina,A5793,-,-,-,3.41,Log unit,25,?C,n1c2ccccc2c(c2c1cccc2)C(=O)OC,4
CCN(CC)CCCC(C)NC1=CC=NC2=C1C=CC(Br)=C2,-,R946428,M478405,-,-,7-bromo-4-(4-diethylamino-1-methyl)butylaminoquinoline,Koerner,charochkina,A5793,-,-,-,8.12,Log unit,25,?C,n1c2cc(Br)ccc2c(cc1)NC(CCCN(CC)CC)C,4
OC1=CC=C(Br)C2=C1N=CC=C2,-,R946429,M24890,-,-,5-Bromo-8-hydroxyquinoline,Koerner,charochkina,A5793,-,-,-,3.67,Log unit,25,?C,n1c2c(c(Br)ccc2O)ccc1,11
OC1=CC=C(Br)C2=C1N=CC=C2,-,R946430,M24890,-,-,5-Bromo-8-hydroxyquinoline,Koerner,charochkina,A5793,-,-,-,9.02,Log unit,25,?C,Oc1ccc(Br)c2cccnc12,5
CC1=NC2=C(O)C(Br)=CC(=C2C=C1)S([O-])(=O)=O,-,R946431,M1106887,-,-,7-bromo-8-hydroxy-2-methyl-5-sulphoquinoline,Koerner,charochkina,A5793,-,-,-,3.32,Log unit,25,?C,n1c2c(c(Br)cc(S(=O)(=O)[O-])c2ccc1C)O,14
CC1=NC2=C(O)C(Br)=CC(=C2C=C1)S([O-])(=O)=O,-,R946432,M1106887,-,-,7-bromo-8-hydroxy-2-methyl-5-sulphoquinoline,Koerner,charochkina,A5793,-,-,-,7.96,Log unit,25,?C,Oc1c(Br)cc(S(=O)(=O)[O-])c2ccc(nc12)C,12
SC1CCC(Br)C2CCC[NH2+]C12,-,R946433,M1107304,-,-,5-bromo-8-mercaptoquinoline,Koerner,charochkina,A5793,-,-,-,1.43,Log unit,25,?C,SC1[CH][CH]C(Br)C2[CH][CH][CH][NH2+]C12,5
[S-]C1=CC=C(Br)C2=C1N=CC=C2,-,R946434,M1106888,-,-,5-bromo-8-mercaptoquinoline,Koerner,charochkina,A5793,-,-,-,7.3,Log unit,25,?C,n1c2c(c(Br)ccc2[S-])ccc1,11
SC1CC(Br)CC2CCC[NH2+]C12,-,R946435,M1107305,-,-,6-bromo-8-mercaptoquinoline,Koerner,charochkina,A5793,-,-,-,2.22,Log unit,25,?C,SC1[CH]C(Br)[CH]C2C1[NH2+][CH][CH][CH]2,4
CSC1=CC=CC2=CC(Br)=CN=C12,-,R946436,M1106889,-,-,3-bromo-8-methylthioquinoline,Koerner,charochkina,A5793,-,-,-,2.44,Log unit,25,?C,n1cc(Br)cc2c1c(SC)ccc2,3
CSC1=CC=C(Br)C2=C1N=CC=C2,-,R946437,M1106890,-,-,5-bromo-8-methylthioquinoline,Koerner,charochkina,A5793,-,-,-,2.25,Log unit,25,?C,n1c2c(c(Br)ccc2SC)ccc1,12
OC(=O)C1CCC2CCCCC2[NH2+]1,-,R946438,M1107306,-,-,2-Carboxyquinoline,Koerner,charochkina,A5793,-,-,-,1,Log unit,25,?C,OC(=O)C1[NH2+]C2[CH][CH][CH][CH]C2[CH][CH]1,12
[O-]C(=O)C1=NC2=CC=CC=C2C=C1,-,R946439,M18052,-,-,2-Carboxyquinoline,Koerner,charochkina,A5793,-,-,-,4.8,Log unit,25,?C,n1c2ccccc2ccc1C(=O)[O-],8
[O-]C(=O)C1=CC2=C(C=C1)N=CC=C2,-,R946440,M32500,-,-,6-carboxyquinoline,Koerner,charochkina,A5793,-,-,-,4.8,Log unit,25,?C,n1cccc2c1ccc(C(=O)[O-])c2,0
OC(=O)C1CCCC2CCC[NH2+]C12,-,R946441,M1107307,-,-,8-Carboxyquinoline,Koerner,charochkina,A5793,-,-,-,1.82,Log unit,25,?C,OC(=O)C1C2[NH2+][CH][CH][CH]C2[CH][CH][CH]1,12
[O-]C(=O)C1=CC=CC2=C1N=CC=C2,-,R946442,M17814,-,-,8-Carboxyquinoline,Koerner,charochkina,A5793,-,-,-,6.8,Log unit,25,?C,n1cccc2c1c(ccc2)C(=O)[O-],0
OC1=CC=C(C([O-])=O)C2=C1N=CC=C2,-,R946443,M147583,-,-,5-carboxy-8-hydroxyquinoline,Koerner,charochkina,A5793,-,-,-,9.32,Log unit,25,?C,Oc1c2ncccc2c(cc1)C(=O)[O-],8
OC1=CC=C(C([O-])=O)C2=C1N=CC=C2,-,R946444,M147583,-,-,5-carboxy-8-hydroxyquinoline,Koerner,charochkina,A5793,-,-,-,4.8,Log unit,25,?C,n1cccc2c1c(ccc2C(=O)[O-])O,0
ClC1=CN=C2C=CC=CC2=C1,-,R946445,M120634,-,-,3-Chloroquinoline,Koerner,charochkina,A5793,-,-,-,2.63,Log unit,25,?C,n1cc(Cl)cc2c1cccc2,3
ClC1=CC=NC2=C1C=CC=C2,-,R946446,M22413,-,-,4-Chloroquinoline,Koerner,charochkina,A5793,-,-,-,3.7,Log unit,25,?C,n1ccc(Cl)c2ccccc12,4
ClC1=CC=CC2=C1C=CC=N2,-,R946447,M23038,-,-,5-Chloroquinoline,Koerner,charochkina,A5793,-,-,-,3.65,Log unit,25,?C,n1c2c(c(Cl)ccc2)ccc1,10
ClC1=CC=C2N=CC=CC2=C1,-,R946448,M3289,-,-,6-Chloroquinoline,Koerner,charochkina,A5793,-,-,-,4.045,Log unit,25,?C,n1c2ccc(Cl)cc2ccc1,5
ClC1=CC=C2C=CC=NC2=C1,-,R946449,M111214,-,-,7-chloroquinoline,Koerner,charochkina,A5793,-,-,-,3.85,Log unit,25,?C,n1c2cc(Cl)ccc2ccc1,9
ClC1=CC=CC2=C1N=CC=C2,-,R946450,M10065,-,-,8-Chloroquinoline,Koerner,charochkina,A5793,-,-,-,3.12,Log unit,25,?C,n1c2c(Cl)cccc2ccc1,6
CCOC1=CC2=C(C=C1)N=CC=C2Cl,-,R946451,M1106891,-,-,4-chloro-6-ethoxyquinoline,Koerner,charochkina,A5793,-,-,-,3.82,Log unit,25,?C,n1ccc(Cl)c2cc(ccc12)OCC,4
FC1=CC2=C(C=C1)N=CC=C2Cl,-,R946452,M1106892,-,-,4-chloro-6-fluoroquinoline,Koerner,charochkina,A5793,-,-,-,2.95,Log unit,25,?C,n1ccc(Cl)c2cc(F)ccc12,4
FC1=CC2=C(C=C1)C(Cl)=CC=N2,-,R946453,M1106893,-,-,4-chloro-7-fluoroquinoline,Koerner,charochkina,A5793,-,-,-,3.04,Log unit,25,?C,n1ccc(Cl)c2ccc(F)cc12,4
OC1=C2N=CC=CC2=CC=C1Cl,-,R946454,M68010,-,-,7-chloro-8-hydroxyquinoline,Koerner,charochkina,A5793,-,-,-,4,Log unit,25,?C,n1c2c(c(Cl)ccc2ccc1)O,10
[S-]C1=CC=C(Cl)C2=C1N=CC=C2,-,R946455,M1106894,-,-,5-chloro-8-mercaptoquinoline,Koerner,charochkina,A5793,-,-,-,7.34,Log unit,25,?C,n1c2c(c(Cl)ccc2[S-])ccc1,11
COC1=CC2=C(C=C1)N=CC=C2Cl,-,R946456,M1106895,-,-,4-chloro-6-methoxyquinoline,Koerner,charochkina,A5793,-,-,-,3.93,Log unit,25,?C,n1ccc(Cl)c2cc(ccc12)OC,4
COC1=CC2=C(C=C1)C(Cl)=CC=N2,-,R946457,M1106896,-,-,4-chloro-7-methoxyquinoline,Koerner,charochkina,A5793,-,-,-,4.32,Log unit,25,?C,n1ccc(Cl)c2ccc(OC)cc12,4
CC1=CC2=C(C=C1)N=CC=C2Cl,-,R946458,M1106897,-,-,4-chloro-6-methylquinoline,Koerner,charochkina,A5793,-,-,-,3.96,Log unit,25,?C,n1ccc(Cl)c2cc(ccc12)C,4
CC1=CC2=C(C=C1)C(Cl)=CC=N2,-,R946459,M1106898,-,-,4-chloro-7-methylquinoline,Koerner,charochkina,A5793,-,-,-,4,Log unit,25,?C,n1ccc(Cl)c2ccc(C)cc12,4
NC1=NC2=CC=CC=C2C(N)=C1,-,R946460,M1106899,-,-,"2,4-diaminoquinoline",Koerner,charochkina,A5793,-,-,-,9.4,Log unit,25,?C,n1c2ccccc2c(cc1N)N,9
ClC1=CC=C2N=CC=C(Cl)C2=C1,-,R946461,M1106900,-,-,"4,6-dichloroquinoline",Koerner,charochkina,A5793,-,-,-,2.81,Log unit,25,?C,n1c2ccc(Cl)cc2c(Cl)cc1,5
ClC1=CC=C2C(Cl)=CC=NC2=C1,-,R946462,M17831,-,-,"4,7-Dichloroquinoline",Koerner,charochkina,A5793,-,-,-,2.8,Log unit,25,?C,n1c2cc(Cl)ccc2c(Cl)cc1,10
OC1=C2N=CC=CC2=C(Cl)C=C1Cl,-,R946463,M23614,-,-,"5,7-Dichloro-8-hydroxyquinoline",Koerner,charochkina,A5793,-,-,-,7.62,Log unit,25,?C,Oc1c(Cl)cc(Cl)c2cccnc12,9
OC1=C2N=CC=CC2=C(Cl)C=C1Cl,-,R946464,M23614,-,-,"5,7-Dichloro-8-hydroxyquinoline",Koerner,charochkina,A5793,-,-,-,2.89,Log unit,25,?C,n1c2c(c(Cl)cc(Cl)c2ccc1)O,11
CC1=CC2=CC=CC=C2N=C1C,-,R946465,M25654,-,-,"2,3-DIMETHYLQUINOLINE",Koerner,charochkina,A5793,-,-,-,4.94,Log unit,25,?C,n1c2ccccc2cc(C)c1C,9
CC1=CC2=C(C=C1)N=C(C)C=C2,-,R946466,M23897,-,-,"2,6-Dimethylquinoline",Koerner,charochkina,A5793,-,-,-,5.78,Log unit,25,?C,n1c(ccc2c1ccc(C)c2)C,0
CC1=NC2=C(O)C(=CC=C2C(C)=C1)S([O-])(=O)=O,-,R946467,M1106910,-,-,"2,4-dimethyl-8-hydroxy-quinoline-7-sulfonic acid",Koerner,charochkina,A5793,-,-,-,10.14,Log unit,25,?C,Oc1c(S(=O)(=O)[O-])ccc2c(cc(nc12)C)C,12
CSC1=CC=CC2=C1N=C(C)C=C2C,-,R946468,M1106901,-,-,"2,4-dimethyl-8-methylthioquinoline",Koerner,charochkina,A5793,-,-,-,4.88,Log unit,25,?C,n1c2c(SC)cccc2c(cc1C)C,7
CSC1=CC(C)=CC2=C1N=CC=C2C,-,R946469,M1106902,-,-,"4,6-dimethyl-8-methylthioquinoline",Koerner,charochkina,A5793,-,-,-,4.54,Log unit,25,?C,n1c2c(SC)cc(cc2c(cc1)C)C,8
FC1=CC2=C(C=CC=C2)N=C1,-,R946470,M120507,-,-,3-Fluoroquinoline,Koerner,charochkina,A5793,-,-,-,2.695,Log unit,25,?C,n1cc(F)cc2c1cccc2,0
FC1=CC=CC2=C1C=CC=N2,-,R946471,M120504,-,-,5-Fluoroquinoline,Koerner,charochkina,A5793,-,-,-,3.955,Log unit,25,?C,n1cccc2c1cccc2F,0