"SMILES","CASRN","RECORDID","MOLECULEID","EXTERNALID","N","NAME","NAME","INTRODUCER","MODIFIER","ARTICLEID","PUBMEDID","PAGE","TABLE","pKa (smiles as ob. cond.) {measured}","UNIT {pKa (smiles as ob. cond.)}","pKa (smiles as ob. cond.) {measured, converted}","UNIT {pKa (smiles as ob. cond.)}","Ionizable centre (smiles)","IC group detected","AtomNR of IC","groupsAndICs","IC smiles given","IC group given","Temperature","UNIT {Temperature}","MultiGroupDetection","COMMENTS","INCHI_KEY"
"NC(=N)C1=CC=CC=C1","-","R945852","M25566","-","-","guanidinobenzene","-","Koerner","charochkina","A5793","-","-","-","11.3","Log unit","11.3","Log unit","C(=N)(c1ccccc1)N","1","","{neth=[1], nr2=[3]}","c1(C(=N)N)ccccc1","neth","25.0","?C","","-","PXXJHWLDUBFPOL-UHFFFAOYSA"
"NC(=N)C1=CC=C(O)C=C1","-","R945853","M491777","-","-","4-hydroxy-guanidinobenzene","-","Koerner","charochkina","A5793","-","-","-","12.5","Log unit","12.5","Log unit","C(=N)(c1ccc(O)cc1)N","1","","{neth=[1], nr2=[3], oh=[7]}","c1(C(=N)N)ccc(O)cc1","neth","25.0","?C","","-","YYXYBWIDIWTCGS-UHFFFAOYSA"
"NC(=N)C1=CC=C(C=C1)C([O-])=O","-","R945854","M272472","-","-","4-carboxy-guanidinobenzene","-","Koerner","charochkina","A5793","-","-","-","10.9","Log unit","10.9","Log unit","C(=N)(c1ccc(C(=O)[O-])cc1)N","1","","{neth=[1], nr2=[3]}","c1(C(=N)N)ccc(C(=O)[O-1])cc1","neth","25.0","?C","","-","OPMDVIDBSGETBB-UHFFFAOYSA"
"COC1=CC=C(C=C1)C(N)=N","-","R945855","M1106671","-","-","4-methoxy-guanidinobenzene","-","Koerner","charochkina","A5793","-","-","-","11.8","Log unit","11.8","Log unit","C(=N)(c1ccc(OC)cc1)N","1","","{neth=[1], nr2=[3]}","c1(C(=N)N)ccc(OC)cc1","neth","25.0","?C","","-","CSISQILZUHMAJB-UHFFFAOYSA"
"NC(=N)C1=CC=C(C=C1)N(=O)=O","-","R945856","M82036","-","-","4-nitro-guanidinobenzene","-","Koerner","charochkina","A5793","-","-","-","9.58","Log unit","9.58","Log unit","C(=N)(c1ccc(N(=O)=O)cc1)N","1","","{neth=[1], nr2=[3, 7]}","c1(C(=N)N)ccc(N(=O)=O)cc1","neth","25.0","?C","","-","RNYJYWQMEZWWPT-UHFFFAOYSA"
"CC(O)(C(N)=N)C1=CC=CC=C1","-","R945857","M1106672","-","-","(1-amidino-1-hydroxy)ethylbenzene","-","Koerner","charochkina","A5793","-","-","-","10.96","Log unit","10.96","Log unit","C(=N)(C(c1ccccc1)(O)C)N","6","","{neth=[6], nr2=[8], oh=[5]}","c(ccc1C(O)(C(=N)N)C)cc1","neth","25.0","?C","","-","ZVYWQFCGNWHABY-UHFFFAOYSA"
"NC(=N)C(O)C1=CC=CC=C1","-","R945858","M1106673","-","-","(C-amidino-C-hydroxy)methylbenzene","-","Koerner","charochkina","A5793","-","-","-","11.1","Log unit","11.1","Log unit","C(=N)(C(c1ccccc1)O)N","6","","{neth=[6], nr2=[8], oh=[5]}","c(ccc1C(O)C(=N)N)cc1","neth","25.0","?C","","-","AFXGCWGNLJLYEZ-UHFFFAOYSA"
"CCC(O)(C(N)=N)C1=CC=CC=C1","-","R945859","M1106674","-","-","(1-amidineo-1-hydroxy)propylbenzene","-","Koerner","charochkina","A5793","-","-","-","11.4","Log unit","11.4","Log unit","C(=N)(C(c1ccccc1)(O)CC)N","6","","{neth=[6], nr2=[8], oh=[5]}","c(ccc1C(O)(C(=N)N)CC)cc1","neth","25.0","?C","","-","XLRQFVVVKFVESU-UHFFFAOYSA"
"NC(CC1=CC=CC=C1)=NO","-","R945860","M749937","-","-","(2-amino-2-hydroxyimino)ethylbenzene","-","Koerner","charochkina","A5793","-","-","-","5.2","Log unit","5.2","Log unit","C(=NO)(Cc1ccccc1)N","5","","{neth=[5], nr2=[8], oh=[7]}","c(ccc1CC(=NO)N)cc1","neth","25.0","?C","","-","FVYBAJYRRIYNBN-UHFFFAOYSA"
"NC(=NO)C1=CC=CC=C1","-","R945861","M67198","-","-","C-amino-C-hydroxyiminoethylbenzene","-","Koerner","charochkina","A5793","-","-","-","4.79","Log unit","4.79","Log unit","C(=NO)(c1ccccc1)N","4","","{neth=[4], nr2=[7], oh=[6]}","c(ccc1C(=NO)N)cc1","neth","25.0","?C","","-","MXOQNVMDKHLYCZ-UHFFFAOYSA"
"CC1=CC=CC=C1C(N)=NO","-","R945862","M1106675","-","-","1-(C-amino-C-hydroxyiminomethyl)-2-methylbenzene","-","Koerner","charochkina","A5793","-","-","-","3.99","Log unit","3.99","Log unit","C(=NO)(c1ccccc1C)N","4","","{neth=[4], nr2=[7], oh=[6]}","c(ccc1C(=NO)N)cc1C","neth","25.0","?C","","-","UAKAWWHOQNNATR-UHFFFAOYSA"
"CC1=CC=C(C=C1)C(N)=NO","-","R945863","M749762","-","-","1-(C-amino-C-hydroxyiminomethyl)-4-methylbenzene","-","Koerner","charochkina","A5793","-","-","-","5.1","Log unit","5.1","Log unit","C(=NO)(c1ccc(cc1)C)N","4","","{neth=[4], nr2=[7], oh=[6]}","c(cc(c1)C(=NO)N)c(c1)C","neth","25.0","?C","","-","NKJXMLIWSJATEE-UHFFFAOYSA"
"NC(=N)NC1=CC=C(Cl)C=C1","-","R945864","M183679","-","-","1-chloro-4-guanidinobenzene","-","Koerner","charochkina","A5793","-","-","-","10.9","Log unit","10.9","Log unit","C(=N)(Nc1ccc(Cl)cc1)N","6","","{neth=[6], nr2=[5, 8]}","Cl-c(ccc1NC(=N)N)cc1","neth","25.0","?C","","-","ZSJNJAJDBNFVCA-UHFFFAOYSA"
"ClC1=CC=CC=C1C(=N)C1=CC=CC=C1","-","R945865","M1106676","-","-","1-chloro-2-iminobenzylbenzene","-","Koerner","charochkina","A5793","-","-","-","5.9","Log unit","5.9","Log unit","C(=N)(c1c(Cl)cccc1)c1ccccc1","7","","{neth=[7]}","Cl-c(ccc1)c(c1)C(=N)c(ccc2)cc2","neth","25.0","?C","","-","GBRNGMVBIWLZCI-UHFFFAOYSA"
"ClC1=CC=CC=C1C(=N)C1=CC=CC=C1","-","R945866","M1106676","-","-","1-chloro-3-iminobenzylbenzene","-","Koerner","charochkina","A5793","-","-","-","6.0","Log unit","6.0","Log unit","C(=N)(c1c(Cl)cccc1)c1ccccc1","7","","{neth=[7]}","Cl-c(ccc1)c(c1)C(=N)c(ccc2)cc2","neth","25.0","?C","","-","GBRNGMVBIWLZCI-UHFFFAOYSA"
"CNC(=N)NC1=CC=C(Cl)C=C1","-","R945867","M1106677","-","-","1-chloro-4-N3-methylguanidinobenzene","-","Koerner","charochkina","A5793","-","-","-","11.15","Log unit","11.15","Log unit","C(=N)(Nc1ccc(Cl)cc1)NC","6","","{neth=[6], nr2=[5, 8]}","Cl-c(ccc1NC(=N)NC)cc1","neth","25.0","?C","","-","HRKXQOBEXVFOTB-UHFFFAOYSA"
"OC1=CC=C(C(=N)C2=CC=CC=C2)C(O)=C1","-","R945868","M1106678","-","-","1,3-dihydroxy-4-iminobenzylbenzene","-","Koerner","charochkina","A5793","-","-","-","9.3","Log unit","9.3","Log unit","C(=N)(c1ccccc1)c1ccc(O)cc1O","4","","{neth=[4], oh=[10, 12]}","c(ccc1C(=N)c(ccc2O)c(O)c2)cc1","neth","25.0","?C","","-","ZYJLGKDQCMFFNC-UHFFFAOYSA"
"OC1=CC(=CC=C1)C(=N)C1=CC=CC=C1","-","R945869","M1106679","-","-","1-hydroxy-3-iminobenzylbenzene","-","Koerner","charochkina","A5793","-","-","-","7.0","Log unit","7.0","Log unit","C(=N)(c1ccccc1)c1cccc(c1)O","4","","{neth=[4], oh=[12]}","c(ccc1C(=N)c(ccc2)cc2O)cc1","neth","25.0","?C","","-","MTBSWWFUPDLQGN-UHFFFAOYSA"
"OC1=CC=C(C=C1)C(=N)C1=CC=CC=C1","-","R945870","M1106680","-","-","1-hydroxy-4-iminobenzylbenzene","-","Koerner","charochkina","A5793","-","-","-","7.85","Log unit","7.85","Log unit","C(=N)(c1ccccc1)c1ccc(O)cc1","4","","{neth=[4], oh=[10]}","c(ccc1C(=N)-c(ccc2O)cc2)cc1","neth","25.0","?C","","-","RPZDWCSUGSQAMO-UHFFFAOYSA"
"COC1=CC(=CC=C1O)C(=N)C1=CC=CC=C1","-","R945871","M1106681","-","-","1-hydroxy-4-iminobenzyl-3-methoxybenzene","-","Koerner","charochkina","A5793","-","-","-","8.3","Log unit","8.3","Log unit","C(=N)(c1ccccc1)c1ccc(O)c(c1)OC","4","","{neth=[4], oh=[10]}","c(ccc1C(=N)c(ccc2O)cc2OC)cc1","neth","25.0","?C","","-","SQADMWOMALVTHO-UHFFFAOYSA"
"N=C(C1=CC=CC=C1)C1=CC=CC=C1","-","R945872","M24351","-","-","iminobenzylbenzene","-","Koerner","charochkina","A5793","-","-","-","7.48","Log unit","7.48","Log unit","C(=N)(c1ccccc1)c1ccccc1","4","","{neth=[4]}","c(ccc1C(=N)c(ccc2)cc2)cc1","neth","25.0","?C","","-","SXZIXHOMFPUIRK-UHFFFAOYSA"
"COC1=CC=C(C(=N)C2=CC=CC=C2)C(OC)=C1","-","R945873","M1106682","-","-","1-iminobenzyl-2,4-dimethoxybenzene","-","Koerner","charochkina","A5793","-","-","-","8.3","Log unit","8.3","Log unit","C(=N)(c1ccccc1)c1ccc(OC)cc1OC","4","","{neth=[4]}","c(ccc1C(=N)c(ccc2OC)c(c2)OC)cc1","neth","25.0","?C","","-","MAGRLYHZRPHORR-UHFFFAOYSA"
"CC1=CC=C(C(=N)C2=CC=CC=C2)C(C)=C1","-","R945874","M1106683","-","-","1-iminobenzyl-2,4-dimethylbenzene","-","Koerner","charochkina","A5793","-","-","-","7.5","Log unit","7.5","Log unit","C(=N)(c1ccccc1)c1ccc(C)cc1C","4","","{neth=[4]}","c(ccc1C(=N)c(ccc2C)c(c2)C)cc1","neth","25.0","?C","","-","DRZBKQOLJGOKPI-UHFFFAOYSA"
"CC1=CC=C(C)C(=C1)C(=N)C1=CC=CC=C1","-","R945875","M1106684","-","-","1-iminobenzyl-2,5-dimethylbenzene","-","Koerner","charochkina","A5793","-","-","-","7.5","Log unit","7.5","Log unit","C(=N)(c1ccccc1)c1cc(ccc1C)C","4","","{neth=[4]}","c(ccc1C(=N)c(cc(c2)C)c(c2)C)cc1","neth","25.0","?C","","-","OGWHLATUKVEFKQ-UHFFFAOYSA"
"CC1=CC=CC(C)=C1C(=N)C1=CC=CC=C1","-","R945876","M35608","-","-","1-iminobenzyl-2,6-dimethylbenzene","-","Koerner","charochkina","A5793","-","-","-","8.0","Log unit","8.0","Log unit","C(=N)(c1ccccc1)c1c(cccc1C)C","4","","{neth=[4]}","c(ccc1C(=N)c(c(cc2)C)c(c2)C)cc1","neth","25.0","?C","","-","JWYBQCKOYWARFE-UHFFFAOYSA"
"CC1=CC(=CC(C)=C1)C(=N)C1=CC=CC=C1","-","R945877","M1106685","-","-","1-iminobenzyl-3,5-dimethylbenzene","-","Koerner","charochkina","A5793","-","-","-","7.1","Log unit","7.1","Log unit","C(=N)(c1ccccc1)c1cc(cc(c1)C)C","4","","{neth=[4]}","c(ccc1C(=N)c(cc(c2)C)cc2C)cc1","neth","25.0","?C","","-","FDCREYQMDVVJOD-UHFFFAOYSA"
"COC1=CC=CC=C1C(=N)C1=CC=CC=C1","-","R945878","M1106686","-","-","1-iminobenzyl-2-methoxybenzene","-","Koerner","charochkina","A5793","-","-","-","7.3","Log unit","7.3","Log unit","C(=N)(c1ccccc1)c1ccccc1OC","4","","{neth=[4]}","c(ccc1C(=N)c(ccc2)c(c2)OC)cc1","neth","25.0","?C","","-","ORCSEXZHGNXJIB-UHFFFAOYSA"
"COC1=CC(=CC=C1)C(=N)C1=CC=CC=C1","-","R945879","M1106687","-","-","1-iminobenzyl-3-methoxybenzene","-","Koerner","charochkina","A5793","-","-","-","7.7","Log unit","7.7","Log unit","C(=N)(c1ccccc1)c1cccc(c1)OC","4","","{neth=[4]}","c(ccc1C(=N)c(ccc2)cc2OC)cc1","neth","25.0","?C","","-","WZVMCERPQSDCRV-UHFFFAOYSA"
"CC1=CC=CC=C1C(=N)C1=CC=CC=C1","-","R945880","M35606","-","-","1-iminobenzyl-2-methylbenzene","-","Koerner","charochkina","A5793","-","-","-","7.5","Log unit","7.5","Log unit","C(=N)(c1ccccc1)c1ccccc1C","4","","{neth=[4]}","c(ccc1C(=N)c(ccc2)c(c2)C)cc1","neth","25.0","?C","","-","CODBILKKNFIKDG-UHFFFAOYSA"
"COC(=N)C1=CC=CC=C1","-","R945881","M1106688","-","-","iminomethoxymethylbenzene","-","Koerner","charochkina","A5793","-","-","-","6.1","Log unit","6.1","Log unit","C(=N)(c1ccccc1)OC","4","","{neth=[4]}","c(ccc1C(OC)=N)cc1","neth","25.0","?C","","-","SISQKQNJHCDULL-UHFFFAOYSA"
"OC1=CC2=C(C=CC=C2)C=C1C1=[NH+]CCN1","-","R945882","M33788","-","-","Imidazoline, 2-[3-(2-hyddroxynaphthyl)]-","-","Koerner","charochkina","A5793","-","-","-","7.01","Log unit","7.01","Log unit","Oc1c(C2=[N+]CCN2)cc2ccccc2c1","14","","{neth=[0], nr2=[4], oh=[14]}","[N+1](CC1)=C(N1)c(cc(ccc2)c3c2)c(O)c3","oh","25.0","?C","","-","FLXNNWWFGVHTDN-UHFFFAOYSA"
"NC(=N)NC(N)=N","-","R945883","M17099","-","-","DIGUANIDE","-","Koerner","charochkina","A5793","-","-","-","12.5","Log unit","12.5","Log unit","C(=N)(N)NC(=N)N","1","","{neth=[1, 4], nr2=[0, 3, 6]}","NC(=N)NC(=N)N","neth","25.0","?C","true","-","XNCOSPRUTUOJCJ-UHFFFAOYSA"
"NC(=N)NC(N)=[NH2+]","-","R945884","M17099","-","-","DIGUANIDE","-","Koerner","charochkina","A5793","-","-","-","3.4","Log unit","3.4","Log unit","C(=N)(NC(=[NH2+])N)N","4","","{neth=[4], nr2=[0, 3, 6]}","NC(=[N+1])NC(=N)N","neth","25.0","?C","","-","XNCOSPRUTUOJCJ-UHFFFAOYSA"
"NC(=N)NC(=N)NC1=CC2=C(C=C1)C=C1C=CC=CC1=C2","-","R945885","M1106691","-","-","N1-(2-anthryl)diguanide","-","Koerner","charochkina","A5793","-","-","-","11.0","Log unit","11.0","Log unit","C(=N)(Nc1cc2cc3ccccc3cc2cc1)NC(=N)N","3","","{neth=[3, 6], nr2=[2, 5, 8]}","c1c(NC(=N)NC(=N)N)ccc2cc3ccccc3cc12","neth","25.0","?C","true","-","ZWDXWQFMEQLNGA-UHFFFAOYSA"
"NC(=N)NC(=N)NC1=CC2=C(C=C1)C=C1C=CC=CC1=C2","-","R945886","M1106691","-","-","N1-(2-anthryl)diguanide","-","Koerner","charochkina","A5793","-","-","-","10.4","Log unit","10.4","Log unit","C(=N)(NC(=N)Nc1cc2cc3ccccc3cc2cc1)N","6","","{neth=[3, 6], nr2=[2, 5, 8]}","c1c(NC(=N)NC(=N)N)ccc2cc3ccccc3cc12","neth","25.0","?C","true","-","ZWDXWQFMEQLNGA-UHFFFAOYSA"
"NC(=N)NC(N)=NCC1=CC=CC=C1","-","R945887","M1106692","-","-","benzyl-diguanide","-","Koerner","charochkina","A5793","-","-","-","11.25","Log unit","11.25","Log unit","C(=N)(N)NC(=NCc1ccccc1)N","1","","{neth=[1, 4], nr2=[0, 3, 13]}","NC(=N)NC(=NCc2ccccc2)N","neth","25.0","?C","true","-","IBWXAMPUVRBFIS-UHFFFAOYSA"
"NC(=[NH2+])NC(N)=NCC1=CC=CC=C1","-","R945888","M1106692","-","-","benzyl-diguanide","-","Koerner","charochkina","A5793","-","-","-","2.7","Log unit","2.7","Log unit","C(=NCc1ccccc1)(NC(=[NH2+])N)N","4","","{neth=[4], nr2=[0, 3, 13]}","NC(=[N+1])NC(=NCc2ccccc2)N","neth","25.0","?C","","-","IBWXAMPUVRBFIS-UHFFFAOYSA"
"CC(C)NC(=N)NC(=N)NC1=CC=C(Br)C=C1","-","R945889","M1106693","-","-","N1-(4-bromophenyl)-N5-isopropyl-diguanide","-","Koerner","charochkina","A5793","-","-","-","11.4","Log unit","11.4","Log unit","C(=N)(Nc1ccc(Br)cc1)NC(=N)NC(C)C","8","","{neth=[8, 11], nr2=[0, 10, 13]}","N(c2ccc(Br)cc2)C(=N)NC(=N)NC(C)C","neth","25.0","?C","true","-","MWZWPAQVKZLONL-UHFFFAOYSA"
"CC(C)NC(=[NH2+])NC(=N)NC1=CC=C(Br)C=C1","-","R945890","M1106693","-","-","N1-(4-bromophenyl)-N5-isopropyl-diguanide","-","Koerner","charochkina","A5793","-","-","-","2.2","Log unit","2.2","Log unit","C(=N)(Nc1ccc(Br)cc1)NC(=[NH2+])NC(C)C","8","","{neth=[8], nr2=[0, 10, 13]}","N(c2ccc(Br)cc2)C(=N)NC(=[N+1])NC(C)C","neth","25.0","?C","","-","MWZWPAQVKZLONL-UHFFFAOYSA"
"CCCCN=C(N)NC(N)=N","-","R945891","M23298","-","-","butyl-diguanide","-","Koerner","charochkina","A5793","-","-","-","11.28","Log unit","11.28","Log unit","C(=N)(N)NC(=NCCCC)N","1","","{neth=[1, 4], nr2=[0, 3, 10]}","NC(=N)NC(=NCCCC)N","neth","25.0","?C","true","-","XSEUMFJMFFMCIU-UHFFFAOYSA"
"CCCCN=C(N)NC(N)=[NH2+]","-","R945892","M23298","-","-","butyl-diguanide","-","Koerner","charochkina","A5793","-","-","-","2.92","Log unit","2.92","Log unit","C(=NCCCC)(NC(=[NH2+])N)N","4","","{neth=[4], nr2=[0, 3, 10]}","NC(=[N+1])NC(=NCCCC)N","neth","25.0","?C","","-","XSEUMFJMFFMCIU-UHFFFAOYSA"
"NC(=[NH2+])NC(=N)NC1=CC=C(Cl)C=C1","-","R945893","M56033","-","-","N1-(4-chlrophenyl)-diguanide","-","Koerner","charochkina","A5793","-","-","-","2.2","Log unit","2.2","Log unit","C(=N)(NC(=[NH2+])N)Nc1ccc(Cl)cc1","4","","{neth=[4], nr2=[0, 3, 6]}","NC(=[N+1])NC(=N)Nc1ccc(Cl)cc1","neth","25.0","?C","","-","HTYFFCPFVMJTKM-UHFFFAOYSA"
"CC(C)NC(=N)NC(N)=NC1=CC=C(Cl)C=C1","-","R945894","M10621","-","-","N2-(4-chlrophenyl)-N5-isopropyl-diguanide","-","Koerner","charochkina","A5793","-","-","-","10.4","Log unit","10.4","Log unit","C(=Nc1ccc(Cl)cc1)(N)NC(=N)NC(C)C","1","","{neth=[1, 11], nr2=[0, 10, 13]}","NC(=Nc2ccc(Cl)cc2)NC(=N)NC(C)C","neth","25.0","?C","true","-","SSOLNOMRVKKSON-UHFFFAOYSA"
"CC(C)NC(=[NH2+])NC(N)=NC1=CC=C(Cl)C=C1","-","R945895","M10621","-","-","N2-(4-chlrophenyl)-N5-isopropyl-diguanide","-","Koerner","charochkina","A5793","-","-","-","2.3","Log unit","2.3","Log unit","C(=Nc1ccc(Cl)cc1)(N)NC(=[NH2+])NC(C)C","1","","{neth=[1], nr2=[0, 10, 13]}","NC(=Nc2ccc(Cl)cc2)NC(=[N+1])NC(C)C","neth","25.0","?C","","-","SSOLNOMRVKKSON-UHFFFAOYSA"
"CC(C)NC(=[NH2+])NC(=N)N(C)C1=CC=CC=C1","-","R945896","M1106694","-","-","N1-(4-chlrophenyl)-N5-isopropyl-N1-methyl-diguanide","-","Koerner","charochkina","A5793","-","-","-","2.4","Log unit","2.4","Log unit","C(=N)(N(c1ccccc1)C)NC(=[NH2+])NC(C)C","8","","{neth=[8], nr2=[6, 10, 13]}","c1ccccc1N(C)C(=N)NC(=[N+1])NC(C)C","neth","25.0","?C","","-","RYGPMNMYRJNUJD-UHFFFAOYSA"
"CN=C(NC(=N)NC(C)C)NC1=CC=CC=C1","-","R945897","M1106695","-","-","N1-(4-chlrophenyl)-N5-isopropyl-N2-methyl-diguanide","-","Koerner","charochkina","A5793","-","-","-","11.8","Log unit","11.8","Log unit","C(=NC)(Nc1ccccc1)NC(=N)NC(C)C","7","","{neth=[7, 11], nr2=[6, 10, 13]}","c1ccccc1NC(=NC)NC(=N)NC(C)C","neth","25.0","?C","true","-","DIYWBUKXWGNDCC-UHFFFAOYSA"
"CN=C(NC(=[NH2+])NC(C)C)NC1=CC=CC=C1","-","R945898","M1106695","-","-","N1-(4-chlrophenyl)-N5-isopropyl-N2-methyl-diguanide","-","Koerner","charochkina","A5793","-","-","-","2.3","Log unit","2.3","Log unit","C(=NC)(Nc1ccccc1)NC(=[NH2+])NC(C)C","7","","{neth=[7], nr2=[6, 10, 13]}","c1ccccc1NC(=NC)NC(=[N+1])NC(C)C","neth","25.0","?C","","-","DIYWBUKXWGNDCC-UHFFFAOYSA"
"C[NH+]=C(NC(C)C)NC(=N)NC1=CC=CC=C1","-","R945899","M1106696","-","-","N1-(4-chlrophenyl)-N5-isopropyl-N4-methyl-diguanide","-","Koerner","charochkina","A5793","-","-","-","2.0","Log unit","2.0","Log unit","C(=N)(Nc1ccccc1)NC(=[NH+]C)NC(C)C","7","","{neth=[7, 10], nr2=[6, 9, 13]}","c1ccccc1NC(=N)NC(=[N+1]C)NC(C)C","neth","25.0","?C","true","-","SEWCVWXULMNPQF-UHFFFAOYSA"
"CN=C(NC(C)C)NC(=N)NC1=CC=CC=C1","-","R945900","M1106696","-","-","N1-(4-chlrophenyl)-N5-isopropyl-N4-methyl-diguanide","-","Koerner","charochkina","A5793","-","-","-","12.2","Log unit","12.2","Log unit","C(=N)(Nc1ccccc1)NC(=NC)NC(C)C","7","","{neth=[7, 10], nr2=[6, 9, 13]}","c1ccccc1NC(=N)NC(=NC)NC(C)C","neth","25.0","?C","true","-","SEWCVWXULMNPQF-UHFFFAOYSA"
"NC(=N)NC(N)=NC1CCCCC1","-","R945901","M1000961","-","-","cyclohexyl-diguanide","-","Koerner","charochkina","A5793","-","-","-","11.39","Log unit","11.39","Log unit","C(=N)(N)NC(=NC1CCCCC1)N","1","","{neth=[1, 4], nr2=[0, 3, 12]}","NC(=N)NC(=NC1CCCCC1)N","neth","25.0","?C","true","-","USGCMNLQYSXCDU-UHFFFAOYSA"
"NC(=[NH2+])NC(N)=NC1CCCCC1","-","R945902","M1000961","-","-","cyclohexyl-diguanide","-","Koerner","charochkina","A5793","-","-","-","3.2","Log unit","3.2","Log unit","C(=NC1CCCCC1)(NC(=[NH2+])N)N","4","","{neth=[4], nr2=[0, 3, 12]}","NC(=[N+1])NC(=NC1CCCCC1)N","neth","25.0","?C","","-","USGCMNLQYSXCDU-UHFFFAOYSA"
"CCN(CC)C(=N)NC(N)=N","-","R945903","M1106697","-","-","N'-diethyl-diguanide","-","Koerner","charochkina","A5793","-","-","-","11.66","Log unit","11.66","Log unit","C(=N)(N)NC(=N)N(CC)CC","1","","{neth=[1, 4], nr2=[0, 3, 6]}","NC(=N)NC(=N)N(CC)CC","neth","25.0","?C","true","-","RTTNMYWPMMYGIS-UHFFFAOYSA"
"NC(=N)NC(=N)NCCNC(=N)NC(N)=N","-","R945904","M1106698","-","-","N-(diguanidoethylene)-diguanide","-","Koerner","charochkina","A5793","-","-","-","11.5","Log unit","11.5","Log unit","C(=N)(N)NC(=N)NCCNC(=N)NC(=N)N","1","","{neth=[1, 4, 10, 13], nr2=[0, 3, 6, 9, 12, 15]}","NC(=N)NC(=N)NCCNC(=N)NC(=N)N","neth","25.0","?C","true","-","UKKLLWZIENSJBD-UHFFFAOYSA"
"NC(=[NH2+])NC(=N)NCCNC(=N)NC(N)=[NH2+]","-","R945905","M1106698","-","-","N-(diguanidoethylene)-diguanide","-","Koerner","charochkina","A5793","-","-","-","2.6","Log unit","2.6","Log unit","C(=N)(NC(=[NH2+])N)NCCNC(=N)NC(=[NH2+])N","4","","{neth=[4, 10], nr2=[0, 3, 6, 9, 12, 15]}","NC(=[N+1])NC(=N)NCCNC(=N)NC(=[N+1])N","neth","25.0","?C","true","-","UKKLLWZIENSJBD-UHFFFAOYSA"
"CN(C)C(=N)NC(N)=N","-","R945906","M13363","-","-","N'-dimethyl-diguanide","-","Koerner","charochkina","A5793","-","-","-","11.52","Log unit","11.52","Log unit","C(=N)(N)NC(=N)N(C)C","1","","{neth=[1, 4], nr2=[0, 3, 6]}","NC(=N)NC(=N)N(C)C","neth","25.0","?C","true","-","XZWYZXLIPXDOLR-UHFFFAOYSA"
"CN(C)C(=N)NC(N)=[NH2+]","-","R945907","M13363","-","-","N'-dimethyl-diguanide","-","Koerner","charochkina","A5793","-","-","-","2.75","Log unit","2.75","Log unit","C(=N)(NC(=[NH2+])N)N(C)C","4","","{neth=[4], nr2=[0, 3, 6]}","NC(=[N+1])NC(=N)N(C)C","neth","25.0","?C","","-","XZWYZXLIPXDOLR-UHFFFAOYSA"
"CCN=C(N)NC(N)=N","-","R945908","M1106699","-","-","N'-ethyl-diguanide","-","Koerner","charochkina","A5793","-","-","-","11.47","Log unit","11.47","Log unit","C(=N)(N)NC(=NCC)N","1","","{neth=[1, 4], nr2=[0, 3, 8]}","NC(=N)NC(=NCC)N","neth","25.0","?C","true","-","XWFPIJRFFLYWRN-UHFFFAOYSA"
"CCN=C(N)NC(N)=[NH2+]","-","R945909","M1106699","-","-","N'-ethyl-diguanide","-","Koerner","charochkina","A5793","-","-","-","3.08","Log unit","3.08","Log unit","C(=NCC)(NC(=[NH2+])N)N","4","","{neth=[4], nr2=[0, 3, 8]}","NC(=[N+1])NC(=NCC)N","neth","25.0","?C","","-","XWFPIJRFFLYWRN-UHFFFAOYSA"
"CCCCCCN=C(N)NC(N)=N","-","R945910","M110027","-","-","hexyl-diguanide","-","Koerner","charochkina","A5793","-","-","-","11.44","Log unit","11.44","Log unit","C(=N)(N)NC(=NCCCCCC)N","1","","{neth=[1, 4], nr2=[0, 3, 12]}","NC(=N)NC(=NCCCCCC)N","neth","25.0","?C","true","-","VAZJLPXFVQHDFB-UHFFFAOYSA"
"CCCCCCN=C(N)NC(N)=[NH2+]","-","R945911","M110027","-","-","cyclohexyl-diguanide","-","Koerner","charochkina","A5793","-","-","-","3.3","Log unit","3.3","Log unit","C(=NCCCCCC)(NC(=[NH2+])N)N","4","","{neth=[4], nr2=[0, 3, 12]}","NC(=[N+1])NC(=NCCCCCC)N","neth","25.0","?C","","-","VAZJLPXFVQHDFB-UHFFFAOYSA"