Smiles,CASRN,Record ID,Molecule ID,External ID,N,Name,Introducer,Modifer,Article ID,PUBMED ID,PAGE,TABLE,pKa,pKa Unit,Temperature,Temperature Unit,Ionizable center smiles,IC group
OC(=O)CCCCC1=CC=CC=C1,2270-20-4,R1509707,M1148,-,198,5-PHENYLPENTANOIC ACID,Koerner,Koerner,A8743,19630371,-,-,4.88,Log unit,,-,OC(=O)CCCCc1ccccc1,
OC(=O)COC1=C2C=CC=CC2=CC=C1,2976-75-2,R1509708,M27641,-,199,(1-naphthalenyloxy)acetic acid,Koerner,Koerner,A8743,19630371,-,-,3.2,Log unit,,-,OC(=O)COc1c2ccccc2ccc1,
OC(=O)CN1C(=O)SC2=CC=CC(Cl)=C12,5/6/13,R1509709,M4205,-,200,"(4-chloro-2-oxo-1,3-benzothiazol-3(2H)-yl)acetic acid",Koerner,Koerner,A8743,19630371,-,-,3.04,Log unit,,-,OC(=O)Cn1c(=O)sc2c1c(Cl)ccc2,
OC(=O)CC1CCCCC1,5292-21-7,R1509710,M30044,-,201,CYCLOHEXYLACETIC ACID,Koerner,Koerner,A8743,19630371,-,-,4.8,Log unit,,-,OC(=O)CC1CCCCC1,
OC(=O)COC1=C(O)C=CC=C1,11/4/24,R1509711,M6378,-,202,[(2-hydroxyphenyl)oxy]acetic acid,Koerner,Koerner,A8743,19630371,-,-,3.02,Log unit,,-,OC(=O)COc1ccccc1O,
COC1=CC=C(C=C1)C(O)C(O)=O,10502-44-0,R1509712,M32566,-,203,hydroxy[4-(methyloxy)phenyl]acetic acid,Koerner,Koerner,A8743,19630371,-,-,3.42,Log unit,,-,OC(=O)C(c1ccc(cc1)OC)O,
CCC1=CC=C(CC(O)=O)C=C1,14387-10-1,R1509713,M33301,-,204,(4-ethylphenyl)acetic acid,Koerner,Koerner,A8743,19630371,-,,4.37,Log unit,,-,OC(=O)Cc1ccc(CC)cc1,
OC(=O)CC1=CC=CC=C1NC1=C(Cl)C=CC=C1Cl,15307-86-5,R1509714,M1847,-,205,"{2-[(2,6-dichlorophenyl)amino]phenyl}acetic acid/diclofenac",Koerner,Koerner,A8743,19630371,-,-,4.15,Log unit,,-,OC(=O)Cc1c(Nc2c(Cl)cccc2Cl)cccc1,
CC(C)CC1=CC=C(C=C1)C(C)C(O)=O,15687-27-1,R1509715,M3742,-,206,2-[4-(2-methylpropyl)phenyl]propanoic acid/ibuprofen,Koerner,Koerner,A8743,19630371,-,-,4.45,Log unit,,-,OC(=O)C(c1ccc(CC(C)C)cc1)C,
C[C@@H](OC1=CC=C(Cl)C=C1C)C(O)=O,16484-77-8,R1509716,M12455,-,207,2-[(4-chloro-2-methylphenyl)oxy]propanoic acid,Koerner,Koerner,A8743,19630371,-,-,3.68,Log unit,,-,OC(=O)C(Oc1c(cc(Cl)cc1)C)C,
OC(=O)CCOC1=CC=CC2=C1C=CC=C2,16563-41-0,R1509717,M33884,-,208,3-(1-naphthalenyloxy)propanoic acid,Koerner,Koerner,A8743,19630371,-,,4,Log unit,,-,OC(=O)CCOc1cccc2ccccc12,
OC(=O)CC1=C(N=C(S1)C1=CC=CC=C1)C1=CC=C(Cl)C=C1,18046-21-4,R1509718,M34359,-,209,"[4-(4-chlorophenyl)-2-phenyl-1,3-thiazol-5-yl]acetic acid/fentiazac",Koerner,Koerner,A8743,19630371,-,-,3.6,Log unit,,-,OC(=O)Cc1sc(c2ccccc2)nc1c1ccc(Cl)cc1,
CCC[C@@H](CC)C(O)=O,20225-24-5,R1509719,M130904,-,210,2-ETHYLPENTANOIC ACID,Koerner,Koerner,A8743,19630371,-,-,4.71,Log unit,,-,OC(=O)C(CCC)CC,
C[C@H](C(O)=O)C1=CC(=CC=C1)C(=O)C1=CC=CC=C1,22071-15-4,R1509720,M2042,-,211,2-[3-(phenylcarbonyl)phenyl]propanoic acid/ketoprofen,Koerner,Koerner,A8743,19630371,-,-,4.45,Log unit,,-,OC(=O)C(c1cc(ccc1)C(=O)c1ccccc1)C,
OC(=O)CC1=CC=C(OCC=C)C(Cl)=C1,22131-79-9,R1509721,M410,-,212,[3-chloro-4-(2-propen-1-yloxy)phenyl]acetic acid/alcofenac,Koerner,Koerner,A8743,19630371,-,-,4.29,Log unit,,-,OC(=O)Cc1ccc(c(Cl)c1)OCC=C,
COC1=CC2=C(C=C1)C=C(C=C2)[C@@H](C)C(O)=O,22204-53-1,R1509722,M1494,-,213,2-[6-(methyloxy)-2-naphthalenyl]propanoic acid/naprosyn,Koerner,Koerner,A8743,19630371,-,-,4.15,Log unit,,-,OC(=O)C(c1cc2c(cc1)cc(OC)cc2)C,
CC(C(O)=O)C1=CC(OC2=CC=CC=C2)=CC=C1,29679-58-1,R1509723,M9629,-,214,2-[3-(phenyloxy)phenyl]propanoic acid/fenoprofen,Koerner,Koerner,A8743,19630371,-,-,4.5,Log unit,,-,OC(=O)C(C)c1cccc(Oc2ccccc2)c1,
CC(C)(C)C1=CC=C(CC(O)=O)C=C1,32857-63-9,R1509724,M37796,-,215,"[4-(1,1-dimethylethyl)phenyl]acetic acid",Koerner,Koerner,A8743,19630371,-,-,4.42,Log unit,,-,OC(=O)Cc1ccc(cc1)C(C)(C)C,
OC(=O)CCC(=O)C1=CC=C(C=C1)C1=CC=CC=C1,36330-85-5,R1509725,M14278,-,216,4-(4-biphenylyl)-4-oxobutanoic acid/fenbufen,Koerner,Koerner,A8743,19630371,-,-,4.51,Log unit,,-,OC(=O)CCC(=O)c1ccc(cc1)c1ccccc1,
CC1=C(CC(O)=O)C2=CC(F)=CC=C2\C1=C\C1=CC=C(C=C1)[S@](C)=O,38194-50-2,R1509726,M130906,-,217,((1E)-5-fluoro-2-methyl-1-{[4-(methylsulfinyl)phenyl]methylidene}-1H-inden-3-yl)acetic acid/sulindac,Koerner,Koerner,A8743,19630371,-,-,4.7,Log unit,,-,OC(=O)CC1=C(C(=Cc2ccc(cc2)S(=O)C)c2c1cc(F)cc2)C,
C[C@@H](C(O)=O)C1=CC=C(C=C1)C(=O)C1=CC=CS1,40828-46-4,R1509727,M130907,-,218,2-[4-(2-thienylcarbonyl)phenyl]propanoic acid/suprofen,Koerner,Koerner,A8743,19630371,-,-,3.91,Log unit,,-,OC(=O)C(c1ccc(C(=O)c2sccc2)cc1)C,
C[C@H](OC1=CC=C(OC2=C(Cl)C=C(Cl)C=C2)C=C1)C(O)=O,40843-25-2,R1509728,M130908,-,219,"2-({4-[(2,4-dichlorophenyl)oxy]phenyl}oxy)propanoic acid",Koerner,Koerner,A8743,19630371,-,-,3.43,Log unit,,-,OC(=O)C(Oc1ccc(Oc2c(Cl)cc(cc2)Cl)cc1)C,
OC(=O)CC1=CN(N=C1C1=CC=C(Cl)C=C1)C1=CC=CC=C1,53808-88-1,R1509729,M40352,-,220,[3-(4-chlorophenyl)-1-phenyl-1H-pyrazol-4-yl]acetic acid/ionazolac,Koerner,Koerner,A8743,19630371,-,-,4.3,Log unit,,-,OC(=O)Cc1c(c2ccc(Cl)cc2)nn(c2ccccc2)c1,
OC(=O)COC1=NC(Cl)=C(Cl)C=C1Cl,55335-06-3,R1509730,M9650,-,221,"[(3,5,6-Trichloro-2-pyridinyl)oxy]acetic acid",Koerner,Koerner,A8743,19630371,-,-,2.68,Log unit,,-,OC(=O)COc1nc(Cl)c(Cl)cc1Cl,
OC(=O)CC1=CC2=C(C=C1)C(=O)C1=CC=CC=C1CS2,55863-26-8,R1509731,M61798,-,222,"(11-oxo-6,11-dihydrodibenzo[b,e]thiepin-2-yl)acetic acid/tiopinac",Koerner,Koerner,A8743,19630371,-,,3.71,Log unit,,-,OC(=O)Cc1cc2SCc3c(C(=O)c2cc1)cccc3,
CC(N(C(=O)C1=CC=CC=C1)C1=CC(Cl)=C(F)C=C1)C(O)=O,58667-63-3,R1509732,M13732,-,223,N-(3-chloro-4-fluorophenyl)-N-(phenylcarbonyl)alanine,Koerner,Koerner,A8743,19630371,-,-,3.72,Log unit,,-,OC(=O)C(N(c1cc(Cl)c(F)cc1)C(=O)c1ccccc1)C,
C[C@H](OC1=CC=C(OC2=CC=C(C=N2)C(F)(F)F)C=C1)C(O)=O,69335-91-7,R1509733,M13839,-,224,2-[(4-{[5-(trifluoromethyl)-2-pyridinyl]oxy}phenyl)oxy]propanoic acid,Koerner,Koerner,A8743,19630371,-,-,3.12,Log unit,,-,OC(=O)C(Oc1ccc(Oc2ncc(C(F)(F)F)cc2)cc1)C,
C[C@H](OC1=CC=C(OC2=NC=C(C=C2Cl)C(F)(F)F)C=C1)C(O)=O,69806-34-4,R1509734,M130910,-,225,2-[(4-{[3-chloro-5-(trifluoromethyl)-2-pyridinyl]oxy}phenyl)oxy]propanoic acid,Koerner,Koerner,A8743,19630371,-,-,2.9,Log unit,,-,OC(=O)C(Oc1ccc(Oc2ncc(C(F)(F)F)cc2Cl)cc1)C,
OC(=O)[C@@H]1CCN2C1=CC=C2C(=O)C1=CC=CC=C1,74103-06-3,R1509735,M8387,-,226,"5-(phenylcarbonyl)-2,3-dihydro-1H-pyrrolo[1,2-a]pyrrole-1-carboxylic acid/ketorolac",Koerner,Koerner,A8743,19630371,-,-,3.49,Log unit,,-,OC(=O)C1c2n(CC1)c(cc2)C(=O)c1ccccc1,
OC(=O)COC1=CC(=C(Cl)C=C1)N(=O)=O,89894-13-3,R1509736,M46286,-,227,[(4-chloro-3-nitrophenyl)oxy]acetic acid,Koerner,Koerner,A8743,19630371,-,-,2.96,Log unit,,-,OC(=O)COc1cc(N(=O)=O)c(Cl)cc1,
OC(=O)C1CC(=O)C(=C(O)C2CC2)C(=O)C1,104273-73-6,R1509737,M46949,-,228,"4-(cyclopropylcarbonyl)-3,5-dioxocyclohexanecarboxylic acid",Koerner,Koerner,A8743,19630371,-,,5.32,Log unit,,-,OC(=C1C(=O)CC(CC1=O)C(=O)O)C1CC1,
NC1=CC=C(N)C(O)=C1N,-,R2172809,M2608463,-,,-,Koerner,Koerner,A9412,-,-,,10,Log unit,,-,Nc1ccc(N)c(O)c1N,
OC(=O)C1=CC(Cl)=C(Cl)C=C1,51-44-5,R2182211,M17001,-,1,"3,4-DICHLOROBENZOIC ACID",Koerner,Koerner,A3183,-,464,4,3.64,Log unit,25,?C,O=C(O)c1ccc(c(Cl)c1)Cl,benzoic acid (meta/para subs.)
OC(=O)C1=CC(Cl)=CC(Cl)=C1,51-36-5,R2182212,M16997,-,2,"3,5-DICHLOROBENZOIC ACID",Koerner,Koerner,A3183,-,464,4,3.54,Log unit,22,?C,O=C(O)c1cc(cc(Cl)c1)Cl,benzoic acid (meta/para subs.)
CCCN(CCC)S(=O)(=O)C1=CC=C(C=C1)C(O)=O,57-66-9,R2182213,M1808,-,3,Probenecid,Koerner,Koerner,A3183,-,464,4,3.4,Log unit,,-,O=C(O)c1ccc(S(=O)(=O)N(CCC)CCC)cc1,benzoic acid (meta/para subs.)
OC(=O)C1=CC=C(C=C1)[N+]([O-])=O,62-23-7,R2182214,M8250,-,4,p-Nitrobenzoic acid,Koerner,Koerner,A3183,-,464,4,3.44,Log unit,,-,O=C(O)c1ccc([N+](=O)[O-])cc1,benzoic acid (meta/para subs.)
OC(=O)C1=CC=CC=C1,65-85-0,R2182215,M12504,-,5,Benzoic acid,Koerner,Koerner,A3183,-,464,4,4.19,Log unit,25,?C,O=C(O)c1ccccc1,benzoic acid (meta/para subs.)
OC(=O)C1=CC=C(Cl)C=C1,74-11-3,R2182216,M13178,-,6,4-Chlorobenzoic Acid,Koerner,Koerner,A3183,-,464,4,3.98,Log unit,25,?C,O=C(O)c1ccc(Cl)cc1,benzoic acid (meta/para subs.)
OC(=O)C1=CC2=C(C=CC=C2)C=C1,93-09-4,R2182217,M18051,-,7,2-NAPHTHOIC ACID,Koerner,Koerner,A3183,-,464,4,4.17,Log unit,20,?C,O=C(O)c1cc2c(cc1)cccc2,benzoic acid (meta/para subs.)
COC1=C(OC)C=C(C=C1)C(O)=O,93-07-2,R2182218,M18050,-,8,"3,4-DIMETHOXYBENZOIC ACID",Koerner,Koerner,A3183,-,464,4,4.36,Log unit,25,?C,O=C(O)c1ccc(c(OC)c1)OC,benzoic acid (meta/para subs.)
CC(C)(C)C1=CC=C(C=C1)C(O)=O,98-73-7,R2182219,M18258,-,9,4-(TERT-BUTYL)-BENZOIC ACID,Koerner,Koerner,A3183,-,464,4,4.4,Log unit,25,?C,O=C(O)c1ccc(cc1)C(C)(C)C,benzoic acid (meta/para subs.)
OC(=O)C1=CC=C(O)C=C1,99-96-7,R2182220,M2644,-,10,p-hydroxybenzoic acid,Koerner,Koerner,A3183,-,464,4,4.54,Log unit,,-,O=C(O)c1ccc(O)cc1,benzoic acid (meta/para subs.)
CC1=CC=C(C=C1)C(O)=O,99-94-5,R2182221,M6364,-,11,p-toluic acid,Koerner,Koerner,A3183,-,464,4,4.37,Log unit,25,?C,O=C(O)c1ccc(cc1)C,benzoic acid (meta/para subs.)
OC(=O)C1=CC(O)=C(O)C=C1,99-50-3,R2182222,M18287,-,12,"3,4-DIHYDROXYBENZOIC ACID",Koerner,Koerner,A3183,-,464,4,4.48,Log unit,25,?C,O=C(O)c1ccc(c(O)c1)O,benzoic acid (meta/para subs.)
OC(=O)C1=CC(=CC(=C1)[N+]([O-])=O)[N+]([O-])=O,99-34-3,R2182223,M18281,-,13,"3,5-DINITROBENZOIC ACID",Koerner,Koerner,A3183,-,464,4,2.82,Log unit,25,?C,O=C(O)c1cc(cc([N+](=O)[O-])c1)[N+](=O)[O-],benzoic acid (meta/para subs.)
OC(=O)C1=CC(O)=CC(O)=C1,99-10-5,R2182224,M18271,-,14,"3,5-DIHYDROXYBENZOIC ACID",Koerner,Koerner,A3183,-,464,4,4.04,Log unit,25,?C,O=C(O)c1cc(cc(O)c1)O,benzoic acid (meta/para subs.)
NC1=CC(=CC=C1)C(O)=O,99-05-8,R2182225,M12880,-,15,3-Aminobenzoic acid,Koerner,Koerner,A3183,-,464,4,4.74,Log unit,25,?C,O=C(O)c1cc(N)ccc1,benzoic acid (meta/para subs.)
CC1=CC=CC(=C1)C(O)=O,99-04-7,R2182226,M3418,-,16,m-toluic acid,Koerner,Koerner,A3183,-,464,4,4.27,Log unit,25,?C,O=C(O)c1cc(ccc1)C,benzoic acid (meta/para subs.)
COC1=CC=C(C=C1)C(O)=O,100-09-4,R2182227,M14072,-,17,p-Methoxybenzoic acid,Koerner,Koerner,A3183,-,464,4,4.47,Log unit,25,?C,O=C(O)c1ccc(OC)cc1,benzoic acid (meta/para subs.)
OC(=O)C1=CC=CC(=C1)[N+]([O-])=O,121-92-6,R2182228,M120,-,18,m-Nitrobenzoic acid,Koerner,Koerner,A3183,-,464,4,3.46,Log unit,25,?C,O=C(O)c1cc([N+](=O)[O-])ccc1,benzoic acid (meta/para subs.)
COC1=C(O)C=CC(=C1)C(O)=O,121-34-6,R2182229,M12372,-,19,4-HYDROXY-3-METHOXYBENZOIC ACID,Koerner,Koerner,A3183,-,464,4,4.51,Log unit,25,?C,O=C(O)c1ccc(c(OC)c1)O,benzoic acid (meta/para subs.)
OC(=O)C1=CC(O)=C(O)C(O)=C1,149-91-7,R2182230,M6312,-,20,"3,4,5-Trihydroxybenzoic acid",Koerner,Koerner,A3183,-,464,4,4.21,Log unit,20,?C,O=C(O)c1cc(c(O)c(c1)O)O,benzoic acid (meta/para subs.)
NC1=CC=C(C=C1)C(O)=O,150-13-0,R2182231,M273,-,21,4-Aminobenzoic acid,Koerner,Koerner,A3183,-,464,4,4.85,Log unit,25,?C,O=C(O)c1ccc(N)cc1,benzoic acid (meta/para subs.)
OC(=O)C1=CC=CC(F)=C1,455-38-9,R2182232,M7098,-,22,m-Fluorobenzoic acid,Koerner,Koerner,A3183,-,464,4,3.86,Log unit,25,?C,O=C(O)c1cc(F)ccc1,benzoic acid (meta/para subs.)
OC(=O)C1=CC=C(F)C=C1,456-22-4,R2182233,M659,-,23,p-Fluorobenzoic acid,Koerner,Koerner,A3183,-,464,4,4.14,Log unit,25,?C,O=C(O)c1ccc(F)cc1,benzoic acid (meta/para subs.)
OC(=O)C1=CC(=C(C=C1)[N+]([O-])=O)[N+]([O-])=O,528-45-0,R2182234,M21276,-,24,"3,4-DINITROBENZOIC ACID",Koerner,Koerner,A3183,-,464,4,2.82,Log unit,25,?C,O=C(O)c1ccc(c([N+](=O)[O-])c1)[N+](=O)[O-],benzoic acid (meta/para subs.)
COC1=CC(=CC(OC)=C1O)C(O)=O,530-57-4,R2182235,M21316,-,25,"4-OH-3,5-DIMETHOXYBENZIOC ACID",Koerner,Koerner,A3183,-,464,4,4.34,Log unit,25,?C,O=C(O)c1cc(c(c(OC)c1)O)OC,benzoic acid (meta/para subs.)
OC(=O)C1=CC=CC(Cl)=C1,535-80-8,R2182236,M6489,-,26,m-chlorobenzoic acid,Koerner,Koerner,A3183,-,464,4,3.81,Log unit,25,?C,O=C(O)c1cc(Cl)ccc1,benzoic acid (meta/para subs.)
CC(C)C1=CC=C(C=C1)C(O)=O,536-66-3,R2182237,M21401,-,27,CUMIC ACID,Koerner,Koerner,A3183,-,464,4,4.35,Log unit,25,?C,O=C(O)c1ccc(cc1)C(C)C,benzoic acid (meta/para subs.)
OC(=O)C1=CC=CC(Br)=C1,585-76-2,R2182238,M11849,-,28,m-Bromobenzoic acid,Koerner,Koerner,A3183,-,464,4,3.81,Log unit,20,?C,O=C(O)c1cc(Br)ccc1,benzoic acid (meta/para subs.)
CC(=O)C1=CC=C(C=C1)C(O)=O,586-89-0,R2182239,M21971,-,29,P-ACETYLBENZOIC ACID,Koerner,Koerner,A3183,-,464,4,3.7,Log unit,25,?C,O=C(O)c1ccc(cc1)C(=O)C,benzoic acid (meta/para subs.)
OC(=O)C1=CC=C(Br)C=C1,586-76-5,R2182240,M10796,-,30,P-BROMOBENZOIC ACID,Koerner,Koerner,A3183,-,464,4,4,Log unit,20,?C,O=C(O)c1ccc(Br)cc1,benzoic acid (meta/para subs.)
COC1=CC(=CC=C1)C(O)=O,586-38-9,R2182241,M12939,-,31,m-Methoxybenzoic acid,Koerner,Koerner,A3183,-,464,4,4.09,Log unit,25,?C,O=C(O)c1cc(OC)ccc1,benzoic acid (meta/para subs.)
OC(=O)C1=CC=CC(I)=C1,618-51-9,R2182242,M5883,-,32,3-Iodobenzoic Acid,Koerner,Koerner,A3183,-,464,4,3.85,Log unit,25,?C,O=C(O)c1cc(I)ccc1,benzoic acid (meta/para subs.)
CCOC1=CC=C(C=C1)C(O)=O,619-86-3,R2182243,M22617,-,33,P-ETHOXYBENZOIC ACID,Koerner,Koerner,A3183,-,464,4,4.45,Log unit,20,?C,O=C(O)c1ccc(OCC)cc1,benzoic acid (meta/para subs.)
OC(=O)C1=CC=C(C=O)C=C1,619-66-9,R2182244,M22615,-,34,4-FORMYLBENZOIC ACID,Koerner,Koerner,A3183,-,464,4,3.77,Log unit,25,?C,O=C(O)c1ccc(cc1)C=O,benzoic acid (meta/para subs.)
OC(=O)C1=CC=C(C=C1)C#N,619-65-8,R2182245,M60,-,35,p-Cyanobenzoic acid,Koerner,Koerner,A3183,-,464,4,3.55,Log unit,20,?C,O=C(O)c1ccc(C#N)cc1,benzoic acid (meta/para subs.)
CCC1=CC=C(C=C1)C(O)=O,619-64-7,R2182246,M22614,-,36,4-ETHYLBENZOIC ACID,Koerner,Koerner,A3183,-,464,4,4.35,Log unit,25,?C,O=C(O)c1ccc(cc1)CC,benzoic acid (meta/para subs.)
OC(=O)C1=CC=C(I)C=C1,619-58-9,R2182247,M3215,-,37,4-iodobenzoic acid,Koerner,Koerner,A3183,-,464,4,3.997,Log unit,25,?C,O=C(O)c1ccc(I)cc1,benzoic acid (meta/para subs.)
OC(=O)C1=CC(C=O)=CC=C1,619-21-6,R2182248,M22602,-,38,3-FORMYLBENZOIC ACID,Koerner,Koerner,A3183,-,464,4,3.84,Log unit,25,?C,O=C(O)c1cc(ccc1)C=O,benzoic acid (meta/para subs.)
NC1=C(N)C=C(C=C1)C(O)=O,619-05-6,R2182249,M3749,-,39,"3,4-DIAMINO-BENZOIC ACID",Koerner,Koerner,A3183,-,464,4,3.49,Log unit,25,?C,O=C(O)c1ccc(c(N)c1)N,benzoic acid (meta/para subs.)
COC1=CC(=CC(OC)=C1)C(O)=O,1132-21-4,R2182250,M24708,-,40,"3,5-DIMETHOXYBENZOIC ACID",Koerner,Koerner,A3183,-,464,4,3.97,Log unit,25,?C,O=C(O)c1cc(cc(OC)c1)OC,benzoic acid (meta/para subs.)
OC(=O)C1=CC=CC(=C1)C#N,1877-72-1,R2182251,M3610,-,41,m-Cyanobenzoic acid,Koerner,Koerner,A3183,-,464,4,3.6,Log unit,20,?C,O=C(O)c1cc(C#N)ccc1,benzoic acid (meta/para subs.)
OC(=O)C1=CC=C(OC2=CC=CC=C2)C=C1,2215-77-2,R2182252,M10142,-,42,p-Phenoxybenzoic acid,Koerner,Koerner,A3183,-,464,4,4.52,Log unit,,-,O=C(O)c1ccc(Oc2ccccc2)cc1,benzoic acid (meta/para subs.)
OC(=O)C1=C(O)C=CC=C1O,303-07-1,R1509581,M218,-,72,"2,6-Dihydroxybenzoic Acid",Koerner,Koerner,A8743,19630371,-,-,1.05,Log unit,,-,OC(=O)c1c(O)cccc1O,
OC(=O)C1=C(O)C=CC(Cl)=C1,321-14-2,R1509582,M19988,-,73,5-Chloro-2-hydroxybenzoic acid,Koerner,Koerner,A8743,19630371,-,-,2.65,Log unit,,-,OC(=O)c1c(O)ccc(Cl)c1,
OC(=O)C1=C(F)C=CC=C1,445-29-4,R1509583,M20472,-,74,2-FLUOROBENZOIC ACID,Koerner,Koerner,A8743,19630371,-,-,3.27,Log unit,,-,OC(=O)c1c(F)cccc1,
OC(=O)C1=CC(O)=CC=C1O,490-79-9,R1509584,M12697,-,75,"2,5-Dihydroxybenzoic acid",Koerner,Koerner,A8743,19630371,-,-,2.95,Log unit,,-,OC(=O)c1cc(O)ccc1O,
OC(=O)C1=CC=CC=C1N(=O)=O,552-16-9,R1509585,M10447,-,76,2-NITROBENZOIC ACID,Koerner,Koerner,A8743,19630371,-,-,2.17,Log unit,,-,OC(=O)c1ccccc1N(=O)=O,
CC(=O)C1=CC=CC=C1C(O)=O,577-56-0,R1509586,M21878,-,77,2-Acetylbenzoic acid,Koerner,Koerner,A8743,19630371,-,-,4.13,Log unit,,-,OC(=O)c1ccccc1C(=O)C,
COC1=CC=CC=C1C(O)=O,579-75-9,R1509587,M4478,-,78,2-(methyloxy)benzoic acid,Koerner,Koerner,A8743,19630371,-,-,3.9,Log unit,,-,OC(=O)c1ccccc1OC,
OC(=O)C1=C(O)C(=CC(=C1)N(=O)=O)N(=O)=O,609-99-4,R1509588,M22380,-,79,"2-Hydroxy-3,5-dinitrobenzoic acid",Koerner,Koerner,A8743,19630371,-,-,0.7,Log unit,,-,OC(=O)c1c(O)c(N(=O)=O)cc(N(=O)=O)c1,
OC(=O)C1=C(C=C(C=C1)N(=O)=O)N(=O)=O,610-30-0,R1509589,M22387,-,80,"2,4-DINITROBENZOIC ACID",Koerner,Koerner,A8743,19630371,-,-,1.42,Log unit,,-,OC(=O)c1c(N(=O)=O)cc(N(=O)=O)cc1,
CC1=CC=CC(C)=C1C(O)=O,632-46-2,R1509590,M23003,-,81,"2,6-DIMETHYLBENZOIC ACID",Koerner,Koerner,A8743,19630371,-,-,3.35,Log unit,,-,OC(=O)c1c(cccc1C)C,
CC1=C(F)C(F)=C(C(O)=O)C(F)=C1F,652-32-4,R1509591,M23181,-,82,"2,3,5,6-Tetrafluoro-4-methylbenzoic acid",Koerner,Koerner,A8743,19630371,-,-,2,Log unit,,-,OC(=O)c1c(F)c(F)c(C)c(F)c1F,
OC(=O)C1=CC=CC=C1C1=CC=CC=C1,947-84-2,R1509592,M24160,-,83,2-Biphenylcarboxylic acid,Koerner,Koerner,A8743,19630371,-,-,3.46,Log unit,,-,OC(=O)c1ccccc1c1ccccc1,
COC1=CC=CC(OC)=C1C(O)=O,1466-76-8,R1509593,M25188,-,84,"2,6-bis(methyloxy)benzoic acid",Koerner,Koerner,A8743,19630371,-,-,3.44,Log unit,,-,OC(=O)c1c(OC)cccc1OC,
COC1=CC=CC(C(O)=O)=C1OC,1521-38-6,R1509594,M25300,-,85,"2,3-dimethyloxybenzoic acid",Koerner,Koerner,A8743,19630371,-,-,3.98,Log unit,,-,OC(=O)c1cccc(OC)c1OC,
COC1=C(Cl)C=CC(Cl)=C1C(O)=O,1918-00-9,R1509595,M4736,-,86,"3,6-dichloro-2-(methyloxy)benzoic acid",Koerner,Koerner,A8743,19630371,-,-,1.97,Log unit,,-,OC(=O)c1c(OC)c(Cl)ccc1Cl,
OC(=O)C1=C(OC2=CC=CC=C2)C=CC=C1,2243-42-7,R1509596,M8635,-,87,2-(phenyloxy)benzoic acid,Koerner,Koerner,A8743,19630371,-,-,3.53,Log unit,,-,OC(=O)c1c(cccc1)Oc1ccccc1,
CC(C)C1=CC=CC=C1C(O)=O,4/2/38,R1509597,M26883,-,88,2-(1-methylethyl)benzoic acid,Koerner,Koerner,A8743,19630371,-,-,3.63,Log unit,,-,OC(=O)c1ccccc1C(C)C,
OC(=O)C1=C(Cl)C=CC(=C1)N(=O)=O,2516-96-3,R1509598,M27018,-,89,2-CHLORO-5-NITROBENZOIC ACID,Koerner,Koerner,A8743,19630371,-,-,2.17,Log unit,,-,OC(=O)c1c(ccc(N(=O)=O)c1)Cl,
OC(=O)C1=CC=CC(=C1Cl)N(=O)=O,3970-35-2,R1509599,M28874,-,90,2-CHLORO-3-NITROBENZOIC ACID,Koerner,Koerner,A8743,19630371,-,-,2.02,Log unit,,-,OC(=O)c1c(c(N(=O)=O)ccc1)Cl,
OC(=O)C1=CC=CC=C1C(=O)NC1=CC=CC=C1,4727-29-1,R1509600,M29633,-,91,2-[(phenylamino)carbonyl]benzoic acid,Koerner,Koerner,A8743,19630371,-,-,2.5,Log unit,,-,OC(=O)c1ccccc1C(=O)Nc1ccccc1,
OC(=O)C1=C(C=CC=C1Cl)N(=O)=O,5344-49-0,R1509601,M30131,-,92,2-Chloro-6-nitrobenzoic acid,Koerner,Koerner,A8743,19630371,-,,1.34,Log unit,,-,OC(=O)c1c(Cl)cccc1N(=O)=O,
CC1=CC=CC(Cl)=C1C(O)=O,21327-86-6,R1509602,M35247,-,93,2-Chloro-6-methylbenzoic acid,Koerner,Koerner,A8743,19630371,-,-,2.75,Log unit,,-,OC(=O)c1c(Cl)cccc1C,
NC(=O)CNC1=CC=CC=C1C(O)=O,25784-02-5,R1509603,M32018,-,94,2-[(2-Amino-2-oxoethyl)amino]benzoic acid,Koerner,Koerner,A8743,19630371,-,-,4.2,Log unit,,-,OC(=O)c1ccccc1NCC(=O)N,
CC(O)C(O)=O,50-21-5,R1509604,M5306,-,95,2-hydroxypropanoic acid,Koerner,Koerner,A8743,19630371,-,-,3.86,Log unit,,-,OC(=O)C(C)O,
COC1=CC2=C(C=C1)N(C(=O)C1=CC=C(Cl)C=C1)C(C)=C2CC(O)=O,53-86-1,R1509605,M1329,-,96,[1-[(4-chlorophenyl)carbonyl]-2-methyl-5-(methyloxy)-1H-indol-3-yl]acetic acid/indomethacin,Koerner,Koerner,A8743,19630371,-,-,4.5,Log unit,,-,OC(=O)Cc1c(n(c2c1cc(OC)cc2)C(=O)c1ccc(cc1)Cl)C,
NC1=CC=C(C=C1)C(=O)NCC(O)=O,61-78-9,R1509606,M4045,-,97,N-[(4-aminophenyl)carbonyl]glycine,Koerner,Koerner,A8743,19630371,-,-,3.8,Log unit,,-,Nc1ccc(C(=O)NCC(=O)O)cc1,
CC1(C)S[C@@H]2[C@H](NC(=O)CC3=CC=CC=C3)C(=O)N2[C@H]1C(O)=O,61-33-6,R1509607,M4999,-,98,"3,3-dimethyl-7-oxo-6-[(phenylacetyl)amino]-4-thia-1-azabicyclo[3.2.0]heptane-2-carboxylic acid/benzylpenicillin",Koerner,Koerner,A8743,19630371,-,-,2.74,Log unit,,-,OC(=O)C1C(C)(C)SC2C(C(=O)N12)NC(=O)Cc1ccccc1,
COC1=CC=CC(OC)=C1C(=O)N[C@H]1[C@H]2SC(C)(C)[C@@H](N2C1=O)C(O)=O,61-32-5,R1509608,M9792,-,99,"6-({[2,6-bis(methyloxy)phenyl]carbonyl}amino)-3,3-dimethyl-7-oxo-4-thia-1-azabicyclo[3.2.0]heptane-2-carboxylic acidmethicillin",Koerner,Koerner,A8743,19630371,-,-,2.77,Log unit,,-,OC(=O)C1C(C)(C)SC2C(C(=O)N12)NC(=O)c1c(OC)cccc1OC,
CC(O)=O,64-19-7,R1509609,M9421,-,100,acetic acid,Koerner,Koerner,A8743,19630371,-,-,4.76,Log unit,,-,OC(=O)C,
OC(=O)CS,68-11-1,R1509610,M1693,-,101,Mercaptoacetic acid,Koerner,Koerner,A8743,19630371,-,-,3.55,Log unit,,-,OC(=O)CS,
CC(Cl)(Cl)C(O)=O,75-99-0,R1509611,M17427,-,102,"2,2-Dichloropropanoic acid",Koerner,Koerner,A8743,19630371,-,-,1.79,Log unit,,-,OC(=O)C(Cl)(Cl)C,
CC(C)(C)C(O)=O,75-98-9,R1509612,M4682,-,103,"2,2-DIMETHYLPROPANOIC ACID",Koerner,Koerner,A8743,19630371,-,-,5.03,Log unit,,-,OC(=O)C(C)(C)C,
OC(=O)C(O)(C1=CC=CC=C1)C1=CC=CC=C1,76-93-7,R1509613,M11153,-,104,hydroxy(diphenyl)acetic acid,Koerner,Koerner,A8743,19630371,-,-,3.05,Log unit,,-,OC(=O)C(O)(c1ccccc1)c1ccccc1,
OC(=O)C(F)(F)F,76-05-1,R1509614,M15134,-,105,Trifluoroacetic acid,Koerner,Koerner,A8743,19630371,-,-,0.52,Log unit,,-,OC(=O)C(F)(F)F,