Smiles,CASRN,Record ID,Molecule ID,External ID,N,Name,Introducer,Modifer,Article ID,PUBMED ID,PAGE,TABLE,pKa,pKa Unit,Temperature,Temperature Unit,Ionizable center smiles,IC group
NC1CCCC2=CC=CC=C12,-,R945667,M28264,-,-,"1-amino-1,2,3,4-tetrahydronaphthalene",Koerner,charochkina,A5793,-,-,-,9.63,Log unit,25,?C,NC1c2ccccc2CCC1,6
NC1CCC2=CC=CC=C2C1,-,R945668,M27616,-,-,"2-amino-1,2,3,4-tetrahydronaphthalene",Koerner,charochkina,A5793,-,-,-,9.93,Log unit,25,?C,NC1Cc2ccccc2CC1,6
NC1=C2CCCCC2=CC=C1,-,R945669,M26503,-,-,"5-Amino-1,2,3,4-tetrahydronaphthalene",Koerner,charochkina,A5793,-,-,-,4.47,Log unit,25,?C,Nc1c2CCCCc2ccc1,6
NC1=CC=C2CCCCC2=C1,-,R945670,M70906,-,-,"6-Amino-1,2,3,4-tetrahydronaphthalene",Koerner,charochkina,A5793,-,-,-,5.17,Log unit,25,?C,Nc1cc2CCCCc2cc1,6
CCCCN(C)C1CCC2=CC=CC=C2C1,-,R945671,M1107201,-,-,"2-(N-butyl-N-methyl)amino-1,2,3,4-tetrahydronaphthalene",Koerner,charochkina,A5793,-,-,-,9.71,Log unit,25,?C,N(C1Cc2ccccc2CC1)(C)CCCC,6
NC1=CC=C(N)C2=CC=CC=C12,-,R945672,M26551,-,-,"1,4-Diaminonaphthalene",Koerner,charochkina,A5793,-,-,-,5.57,Log unit,25,?C,Nc1c2ccccc2c(cc1)N,6
NC1=CC=CC2=CC=CC(N)=C12,-,R945673,M20716,-,-,"1,8-Diaminonaphthalene",Koerner,charochkina,A5793,-,-,-,4.3,Log unit,25,?C,Nc1cccc2c1c(ccc2)N,3
NC1=CC(N)=C(O)C2=CC=CC=C12,-,R945674,M1107202,-,-,"1,3-diamino-4-hydroxynaphthalene",Koerner,charochkina,A5793,-,-,-,4.7,Log unit,25,?C,Nc1c(c2ccccc2c(c1)N)O,7
NC1=CC([NH3+])=C([O-])C2=CC=CC=C12,-,R945675,M1107202,-,-,"1,3-diamino-4-hydroxynaphthalene",Koerner,charochkina,A5793,-,-,-,3.14,Log unit,25,?C,Nc1c2ccccc2c([O-])c([NH2+])c1,12
NC1=CC(N)=C(O)C2=CC=CC=C12,-,R945676,M1107202,-,-,"1,3-diamino-4-hydroxynaphthalene",Koerner,charochkina,A5793,-,-,-,10.18,Log unit,25,?C,Oc1c2ccccc2c(cc1N)N,5
CN(C)C1=CC=CC2=CC=CC=C12,-,R945677,M207,-,-,1-Dimethylaminonaphthalene,Koerner,charochkina,A5793,-,-,-,4.83,Log unit,25,?C,N(c1c2ccccc2ccc1)(C)C,6
CN(C)C1=CC2=CC=CC=C2C=C1,-,R945678,M26873,-,-,2-dimethylaminonaphthalene,Koerner,charochkina,A5793,-,-,-,4.566,Log unit,25,?C,N(c1cc2ccccc2cc1)(C)C,6
CCNC1=CC=CC2=CC=CC=C12,-,R945679,M18976,-,-,1-ethylaminonaphthalene,Koerner,charochkina,A5793,-,-,-,4.19,Log unit,25,?C,N(c1c2ccccc2ccc1)CC,6
CNC1=CC=CC2=CC=CC=C12,-,R945680,M26491,-,-,1-Methylaminonaphthalene,Koerner,charochkina,A5793,-,-,-,3.67,Log unit,25,?C,N(c1c2ccccc2ccc1)C,6
NC1=CC=C(C=CC2=CC=C(N)C=C2)C=C1,-,R945681,M5735,-,-,"4,4'-diamino-stilbene",Koerner,charochkina,A5793,-,-,-,4.9,Log unit,25,?C,Nc1ccc(C=Cc2ccc(cc2)N)cc1,10
CN(C)C1=CC=C(C=CC2=CC=CC=C2C)C=C1,-,R945682,M714391,-,-,4-dimethylamino-2'-methylstilbene,Koerner,charochkina,A5793,-,-,-,4.67,Log unit,25,?C,N(c1ccc(C=Cc2ccccc2C)cc1)(C)C,10
CN1CCCCC(O)C(=O)CCCC1,-,R945683,M1107203,-,-,1-methyl-6-hydroxy-7-oxoazacycloundecane,Koerner,charochkina,A5793,-,-,-,9.1,Log unit,25,?C,N1(CCCCC(=O)C(O)CCCC1)C,6
C1CCCNCC1,-,R945684,M18772,-,-,Hexahydroazepine,Koerner,charochkina,A5793,-,-,-,11.07,Log unit,25,?C,N1CCCCCC1,0
C1CNC1,-,R945685,M20990,-,-,AZETIDINE,Koerner,charochkina,A5793,-,-,-,11.165,Log unit,25,?C,N1CCC1,0
CN1CCC1,-,R945686,M1107204,-,-,N-methylazetidine,Koerner,charochkina,A5793,-,-,-,10.4,Log unit,25,?C,N1(CCC1)C,3
C1CN1,-,R945687,M15664,-,-,aziridine  ,Koerner,charochkina,A5793,-,-,-,7.9,Log unit,25,?C,N1CC1,0
CCCCN1CC1,-,R945688,M24630,-,-,N-n-butylaziridine,Koerner,charochkina,A5793,-,-,-,7.86,Log unit,25,?C,N1(CC1)CCCC,2
CCC1CN1CC,-,R945689,M1107205,-,-,"N,2-diethylaziridine",Koerner,charochkina,A5793,-,-,-,8.18,Log unit,25,?C,N1(CC1CC)CC,1
CC1(C)CN1,-,R945690,M27245,-,-,"2,2-Dimethylaziridine",Koerner,charochkina,A5793,-,-,-,8.625,Log unit,25,?C,N1CC1(C)C,0
CC1NC1C,-,R945691,M1107206,-,-,"trans-2,3-dimethylaziridine",Koerner,charochkina,A5793,-,-,-,8.69,Log unit,25,?C,N1C(C)C1C,0
CCN1CC1,-,R945692,M1107207,-,-,N-ethylaziridine,Koerner,charochkina,A5793,-,-,-,7.93,Log unit,25,?C,N1(CC1)CC,2
CCC1CN1,-,R945693,M27077,-,-,2-ETHYLAZIRIDINE,Koerner,charochkina,A5793,-,-,-,8.3,Log unit,25,?C,N1CC1CC,0
CN1CC1,-,R945694,M24452,-,-,N-Methylaziridine,Koerner,charochkina,A5793,-,-,-,7.86,Log unit,25,?C,N1(CC1)C,2
CC(C=C(C1=CC=CS1)C1=CC=CS1)N1CCCC(=O)CCC1,-,R945695,M1107208,-,-,"octahydro-1-(1-methyl-3,3-dithienyl)prop-2-enylazocine",Koerner,charochkina,A5793,-,-,-,7.47,Log unit,25,?C,N1(C(C=C(c2sccc2)c2sccc2)C)CCCC(=O)CCC1,13
CN1CCCC(=O)CCC1,-,R945696,M1107209,-,-,octahydro-1-methyl-5-oxoazocine,Koerner,charochkina,A5793,-,-,-,8.75,Log unit,25,?C,N1(CCCC(=O)CCC1)C,5
CCN1CCCC(O)C(=O)CCC1,-,R945697,M1107210,-,-,1-ethyl-octahydro-5-hydroxy-6-oxoazonine,Koerner,charochkina,A5793,-,-,-,9.2,Log unit,25,?C,N1(CCCC(=O)C(O)CCC1)CC,5
CN1CCCC(O)C(=O)CCC1,-,R945698,M1107211,-,-,octahydro-5-hydroxyl-1-methyl-6-oxoazonine,Koerner,charochkina,A5793,-,-,-,9.2,Log unit,25,?C,N1(CCCC(=O)C(O)CCC1)C,5
[NH3+]CCNCC1=CC=CO1,-,R945699,M1107212,-,-,2-(2-aminoethylaminomethyl)furan,Koerner,charochkina,A5793,-,-,-,6.56,Log unit,25,?C,N(Cc1occc1)CC[NH3+],6
NCC1=CC=CO1,-,R945700,M22572,-,-,2-AMINOMETHYLFURAN,Koerner,charochkina,A5793,-,-,-,8.89,Log unit,25,?C,NCc1occc1,6
C1CCNCC1,-,R945701,M7529,-,-,piperidine,Koerner,charochkina,A5793,-,-,-,11.115,Log unit,25,?C,N1CCCCC1,0
CC(=O)C(CN1CCCCC1)C1=CC=CC=C1,-,R945702,M1107213,-,-,N-(2-acetyl-2-phenyl)ethylpiperidine,Koerner,charochkina,A5793,-,-,-,8.8,Log unit,25,?C,N1(CC(c2ccccc2)C(=O)C)CCCCC1,9
C=CCN1CCCCC1,-,R945703,M124413,-,-,1-ALLYLPIPERIDINE,Koerner,charochkina,A5793,-,-,-,9.639999,Log unit,25,?C,N1(CCCCC1)CC=C,4
NCCN1CCCCC1,-,R945704,M83027,-,-,1-(2-Aminoethyl)piperidine,Koerner,charochkina,A5793,-,-,-,9.675,Log unit,25,?C,N1(CCCCC1)CCN,4
CC1CCCCN1CCCOC1=CC=CC=C1,-,R945705,M42282,-,-,1-(3-benzoxypropyl)-2-methylpiperidine,Koerner,charochkina,A5793,-,-,-,9.58,Log unit,25,?C,N1(CCCOc2ccccc2)CCCCC1C,8
CC1CC(CC(C)(C)N1)OC1=CC=CC=C1,-,R945706,M1107214,-,-,"4-benzoxy-2,2,6-trimethylpiperidine",Koerner,charochkina,A5793,-,-,-,9.54,Log unit,25,?C,N1C(CC(Oc2ccccc2)CC1(C)C)C,8
O=C(CC1=CC=CC=C1)C(CN1CCCCC1)C1=CC=CC=C1,-,R945707,M1107215,-,-,N-(2-benzylcarbonyl-2-phenyl)ethylpiperidine,Koerner,charochkina,A5793,-,-,-,9.03,Log unit,25,?C,N1(CC(C(=O)Cc2ccccc2)c2ccccc2)CCCCC1,15
CCCCN1CCCCC1,-,R945708,M29816,-,-,1-n-butylpiperidine,Koerner,charochkina,A5793,-,-,-,10.45,Log unit,25,?C,N1(CCCCC1)CCCC,4
CCCCN1CCCCC1C,-,R945709,M1107216,-,-,1-n-butyl-2-methylpiperidine,Koerner,charochkina,A5793,-,-,-,10.7,Log unit,25,?C,N1(CCCCC1C)CCCC,4
N#CC(CCN1CCCCC1)(C1=CC=CC=C1)C1=CC=CC=C1,-,R945710,M1107217,-,-,"1-(3-cyano-3,3-diphenyl)propylpiperidine",Koerner,charochkina,A5793,-,-,-,8.02,Log unit,25,?C,N1(CCC(c2ccccc2)(c2ccccc2)C#N)CCCCC1,15
N#CCN1CCCCC1,-,R945711,M72209,-,-,1-Cyanomethylpiperidine,Koerner,charochkina,A5793,-,-,-,4.525,Log unit,25,?C,N1(CCCCC1)CC#N,4
CC(CC(C#N)(C1=CC=CC=C1)C1=CC=CC=C1)N1CCCCC1,-,R945712,M75435,-,-,"1-(3-cyano-1-methyl-3,3-diphenyl)propylpiperidine",Koerner,charochkina,A5793,-,-,-,8.93,Log unit,25,?C,N1(C(CC(c2ccccc2)(c2ccccc2)C#N)C)CCCCC1,15
CC(CN1CCCCC1)C(C#N)(C1=CC=CC=C1)C1=CC=CC=C1,-,R945713,M117126,-,-,"1-(3-cyano-2-methyl-3,3-diphenyl)propylpiperidine",Koerner,charochkina,A5793,-,-,-,8.16,Log unit,25,?C,N1(CC(C(c2ccccc2)(c2ccccc2)C#N)C)CCCCC1,15
CC1CCCCN1C,-,R945714,M67464,-,-,"1,2-DIMETHYLPIPERIDINE",Koerner,charochkina,A5793,-,-,-,10.22,Log unit,25,?C,N1(CCCCC1C)C,4
CC1CCCN(C)C1,-,R945715,M1107218,-,-,"1,3-dimethylpiperidine",Koerner,charochkina,A5793,-,-,-,10.02,Log unit,25,?C,N1(CCCC(C)C1)C,5
CC1CCN(C)CC1,-,R945716,M1107219,-,-,"1,4-dimethylpiperidine",Koerner,charochkina,A5793,-,-,-,10.05,Log unit,25,?C,N1(CCC(CC1)C)C,5
CC1CCNC(C)C1,-,R945717,M740927,-,-,"2,4-Dimethylpiperidine",Koerner,charochkina,A5793,-,-,-,10.7,Log unit,25,?C,N1CCC(C)CC1C,0
CC1(C)CCCNC1,-,R945718,M24861,-,-,"3,3-Dimethylpiperidine",Koerner,charochkina,A5793,-,-,-,10.38,Log unit,25,?C,N1CCCC(C1)(C)C,0
CN(C)CCN1CCCCC1,-,R945719,M1107220,-,-,1-(2-dimethylamino)ethylpiperidine,Koerner,charochkina,A5793,-,-,-,9.403,Log unit,25,?C,N1(CCCCC1)CCN(C)C,4
O=C(CCN1CCCCC1)C(C1=CC=CC=C1)C1=CC=CC=C1,-,R945720,M1107221,-,-,1-(2-diphenylmethylcarbonyl)ethylpiperidine,Koerner,charochkina,A5793,-,-,-,9.45,Log unit,25,?C,N1(CCC(=O)C(c2ccccc2)c2ccccc2)CCCCC1,15
C(CN1CCCCC1)C(C1=CC=CC=C1)C1=CC=CC=C1,-,R945721,M5344,-,-,"1-(3,3-diphenyl)propylpiperidine",Koerner,charochkina,A5793,-,-,-,8.91,Log unit,25,?C,N1(CCC(c2ccccc2)c2ccccc2)CCCCC1,13
CCN1CCCCC1,-,R945722,M23558,-,-,1-Ethylpiperidine,Koerner,charochkina,A5793,-,-,-,10.45,Log unit,25,?C,N1(CC)CCCCC1,2
CCC1CCNCC1,-,R945723,M27990,-,-,4-Ethylpiperidine,Koerner,charochkina,A5793,-,-,-,10.89,Log unit,25,?C,N1CCC(CC)CC1,0
CCN1CCCC(C)C1,-,R945724,M70790,-,-,1-Ethyl-3-methylpiperidine,Koerner,charochkina,A5793,-,-,-,10.33,Log unit,25,?C,N1(CCCC(C)C1)CC,5
CCN1CCC(C)CC1,-,R945725,M1107222,-,-,1-ethyl-4-methylpiperidine,Koerner,charochkina,A5793,-,-,-,10.28,Log unit,25,?C,N1(CCC(CC1)C)CC,5
CCC(=O)C(CCN1CCCCC1)(C1=CC=CC=C1)C1=CC=CC=C1,-,R945726,M21771,-,-,"1-(3-ethylcarbonyl-3,3-diphenyl)propylpiperidine",Koerner,charochkina,A5793,-,-,-,8.81,Log unit,25,?C,N1(CCC(c2ccccc2)(c2ccccc2)C(=O)CC)CCCCC1,17
CCC(=O)C(C(C)CN1CCCCC1)(C1=CC=CC=C1)C1=CC=CC=C1,-,R945727,M64847,-,-,"1-(3-ethylcarbonyl-2-methyl-3,3-diphenyl)propylpiperidine",Koerner,charochkina,A5793,-,-,-,9.4,Log unit,25,?C,N1(CC(C(c2ccccc2)(c2ccccc2)C(=O)CC)C)CCCCC1,17
CC(CC1=CC=CC=C1)N(C)C,-,R945526,M28962,-,-,(2-dimethylamino)propylbenzene,Koerner,charochkina,A5793,-,-,-,9.4,Log unit,25,?C,N(C(Cc1ccccc1)C)(C)C,6
CC(C)NCC(O)C1=CC(F)=CC=C1,-,R945527,M1107139,-,-,1-fluoro-3-(1-hydroxy-2-isopropylamino)ethylbenzene,Koerner,charochkina,A5793,-,-,-,9.4,Log unit,25,?C,N(CC(c1cc(F)ccc1)O)C(C)C,10
CNCC(O)C1=CC(O)=CC=C1,-,R945528,M10528,-,-,1-hydroxy-3-(1-hydroxy-2-methylamino)ethylbenzene,Koerner,charochkina,A5793,-,-,-,8.875,Log unit,25,?C,N(CC(c1cc(O)ccc1)O)C,10
CNCC(O)C1=CC=C(O)C=C1,-,R945529,M15374,-,-,1-hydroxy-4-(1-hydroxy-2-methylamino)ethylbenzene,Koerner,charochkina,A5793,-,-,-,9.7,Log unit,25,?C,N(CC(c1ccc(O)cc1)O)C,8
CC(C)NCC(O)C1=CC=C(O)C=C1,-,R945530,M58836,-,-,1-hydroxy-4-(1-hydroxy-2-isopropylamino)ethylbenzene,Koerner,charochkina,A5793,-,-,-,9.57,Log unit,25,?C,N(CC(c1ccc(O)cc1)O)C(C)C,8
CC(C)NCC(=O)C1=CC=C(O)C=C1,-,R945531,M1107140,-,-,1-hydroxy-4-(isopropylamino)acetylbenzene,Koerner,charochkina,A5793,-,-,-,7.585,Log unit,25,?C,Oc1ccc(C(=O)CNC(C)C)cc1,0
CC(C)NCC(=O)C1=CC=C(O)C=C1,-,R945532,M1107140,-,-,1-hydroxy-4-(isopropylamino)acetylbenzene,Koerner,charochkina,A5793,-,-,-,9.58,Log unit,25,?C,N(CC(=O)c1ccc(O)cc1)C(C)C,8
CC(C)[NH2+]CCC1=CC=C(O)C=C1,-,R945533,M1107141,-,-,1-hydroxy-4-(2-isopropylamino)ethylbenzene,Koerner,charochkina,A5793,-,-,-,9.594999,Log unit,25,?C,Oc1ccc(CC[NH2+]C(C)C)cc1,0
CC(C)NCCC1=CC=C(O)C=C1,-,R945534,M1107141,-,-,1-hydroxy-4-(2-isopropylamino)ethylbenzene,Koerner,charochkina,A5793,-,-,-,10.75,Log unit,25,?C,N(CCc1ccc(O)cc1)C(C)C,7
CNCC(O)C1=CC=CC=C1,-,R945535,M20875,-,-,(1-hydroxy-2-methylamino)ethylbenzene,Koerner,charochkina,A5793,-,-,-,9.37,Log unit,25,?C,N(CC(c1ccccc1)O)C,7
C[NH2+]CCC1=CC=C(O)C=C1,-,R945536,M20241,-,-,1-hydroxy-4-(2-methylamino)ethyl,Koerner,charochkina,A5793,-,-,-,9.36,Log unit,25,?C,Oc1ccc(CC[NH2+]C)cc1,0
CNC(C)C(O)C1=CC=CC=C1,-,R945537,M5924,-,-,(1-hydroxy-2-methylamino)propylbenzene,Koerner,charochkina,A5793,-,-,-,9.3,Log unit,25,?C,N(C(C(c1ccccc1)O)C)C,7
CC(C)NCCC1=CC=CC=C1,-,R945538,M1107142,-,-,(2-isopropylamino)ethylbenzene,Koerner,charochkina,A5793,-,-,-,10.02,Log unit,25,?C,N(CCc1ccccc1)C(C)C,6
CNCCCCC1=CC=CC=C1,-,R945539,M189169,-,-,(4-methylamino)butylbenzene,Koerner,charochkina,A5793,-,-,-,10.8,Log unit,25,?C,N(CCCCc1ccccc1)C,8
CNCCC1=CC=CC=C1,-,R945540,M10215,-,-,(2-methylamino)ethylbenzene,Koerner,charochkina,A5793,-,-,-,10.195,Log unit,25,?C,N(CCc1ccccc1)C,6
CNC(C)CC1=CC=CC=C1,-,R945541,M7127,-,-,(2-methylaimno)propylbenzene,Koerner,charochkina,A5793,-,-,-,9.87,Log unit,25,?C,N(C(Cc1ccccc1)C)C,6
CNCCCC1=CC=CC=C1,-,R945542,M37379,-,-,(3-methylamino)propylbenzene,Koerner,charochkina,A5793,-,-,-,10.64,Log unit,25,?C,N(CCCc1ccccc1)C,7
CNCC(C)C1=CC=CC=C1,-,R945543,M18084,-,-,(1-methyl-2-methylamino)ethylbenzene,Koerner,charochkina,A5793,-,-,-,9.88,Log unit,25,?C,N(CC(c1ccccc1)C)C,7
NCC1=CC=CC=C1,-,R945544,M12270,-,-,benzylamine,Koerner,charochkina,A5793,-,-,-,9.360001,Log unit,25,?C,NCc1ccccc1,5
CC(O)CN(CC(C)O)CC1=CC=CC=C1,-,R945545,M1066584,-,-,"N,N-bis(2-hydroxypropyl)benzylamine",Koerner,charochkina,A5793,-,-,-,7.5,Log unit,25,?C,N(Cc1ccccc1)(CC(O)C)CC(O)C,5
O=N(=O)C1=CC=C(CNC(CC2=CC=CC=C2)CC2=CC=CC=C2)C=C1,-,R945546,M1107143,-,-,N-(dibenzylmethyl)-p-nitrobenzylamine,Koerner,charochkina,A5793,-,-,-,7.7,Log unit,25,?C,N(C(Cc1ccccc1)Cc1ccccc1)Cc1ccc(N(=O)=O)cc1,6
NCC1=CC(Br)=CC=C1,-,R945547,M235410,-,-,3-bromobenzylamine,Koerner,charochkina,A5793,-,-,-,8.98,Log unit,25,?C,NCc1cc(Br)ccc1,8
NCC1=CC=C(Br)C=C1,-,R945548,M28864,-,-,4-Bromobenzylamine,Koerner,charochkina,A5793,-,-,-,9.13,Log unit,25,?C,NCc1ccc(Br)cc1,6
NCC1=CC(Cl)=CC=C1,-,R945549,M73850,-,-,3-Chlorobenzylamine,Koerner,charochkina,A5793,-,-,-,9,Log unit,25,?C,NCc1cc(Cl)ccc1,8
NCC1=CC=C(Cl)C=C1,-,R945550,M13647,-,-,4-Chlorobenzylamine,Koerner,charochkina,A5793,-,-,-,9.190001,Log unit,25,?C,NCc1ccc(Cl)cc1,6
NC(C#N)C1=CC=CC=C1,-,R945551,M40312,-,-,alpha-cyanobenzylamine,Koerner,charochkina,A5793,-,-,-,4.4,Log unit,25,?C,NC(c1ccccc1)C#N,4
NCC1=CC=C(C=C1)C#N,-,R945552,M112552,-,-,4-cyano-benzylamine,Koerner,charochkina,A5793,-,-,-,8.52,Log unit,25,?C,NCc1ccc(cc1)C#N,5
NC(CC#N)C1=CC=CC=C1,-,R945553,M1107144,-,-,alpha-cyanomethylbenzylamine,Koerner,charochkina,A5793,-,-,-,6.7,Log unit,25,?C,NC(CC#N)c1ccccc1,0
CCN(CC)CC1=CC=CC=C1,-,R945554,M67717,-,-,"N,N-DIETHYLBENZYLAMINE",Koerner,charochkina,A5793,-,-,-,9.44,Log unit,25,?C,N(Cc1ccccc1)(CC)CC,5
COC1=C(OC)C(CN)=CC=C1,-,R945555,M74173,-,-,"2,3-dimethoxy-benzylamine",Koerner,charochkina,A5793,-,-,-,9.41,Log unit,25,?C,NCc1cccc(OC)c1OC,11
COC1=C(OC)C=C(CN)C=C1,-,R945556,M30613,-,-,"3,4-dimethoxy-benzylamine",Koerner,charochkina,A5793,-,-,-,9.39,Log unit,25,?C,NCc1ccc(OC)c(OC)c1,11
CN(C)CC1=CC=CC=C1,-,R945557,M13295,-,-,"N,N-DIMETHYLBENZYLAMINE",Koerner,charochkina,A5793,-,-,-,8.969999,Log unit,25,?C,N(Cc1ccccc1)(C)C,5
CCNCC1=CC=CC=C1,-,R945558,M33276,-,-,N-Ethylbenzylamine,Koerner,charochkina,A5793,-,-,-,9.64,Log unit,25,?C,N(Cc1ccccc1)CC,5
COC1=C(O)C(CN)=CC=C1,-,R945559,M1107090,-,-,2-hydroxy-3-methoxy-benzylamine,Koerner,charochkina,A5793,-,-,-,11.06,Log unit,25,?C,Oc1c(cccc1CN)OC,6
COC1=CC(CN)=CC=C1O,-,R945561,M12553,-,-,4-hydroxy-3-methoxy-benzylamine,Koerner,charochkina,A5793,-,-,-,10.5,Log unit,25,?C,Oc1ccc(CN)cc1OC,0
NCC1=CC(F)=CC=C1,-,R945562,M65262,-,-,3-Fluorobenzylamine,Koerner,charochkina,A5793,-,-,-,9.04,Log unit,25,?C,NCc1cc(F)ccc1,8
NCC1=CC=C(F)C=C1,-,R945563,M65814,-,-,4-Fluorobenzylamine,Koerner,charochkina,A5793,-,-,-,9.3,Log unit,25,?C,NCc1ccc(F)cc1,6
COC1=CC=CC=C1CN,-,R945564,M31494,-,-,2-Methoxybenzylamine,Koerner,charochkina,A5793,-,-,-,9.7,Log unit,25,?C,NCc1ccccc1OC,5
COC1=CC(CN)=CC=C1,-,R945565,M29895,-,-,3-methoxy-benzylamine,Koerner,charochkina,A5793,-,-,-,9.15,Log unit,25,?C,NCc1cccc(c1)OC,9
COC1=CC=C(CN)C=C1,-,R945566,M26778,-,-,4-Methoxy-benzylamine,Koerner,charochkina,A5793,-,-,-,9.51,Log unit,25,?C,NCc1ccc(cc1)OC,5
CNCC1=CC=CC=C1,-,R945567,M9764,-,-,N-Methylbenzylamine,Koerner,charochkina,A5793,-,-,-,9.55,Log unit,25,?C,N(Cc1ccccc1)C,5
CC1=CC=CC=C1CN,-,R945568,M17931,-,-,2-Methylbenzylamine,Koerner,charochkina,A5793,-,-,-,9.19,Log unit,25,?C,NCc1ccccc1C,5
CC1=CC(CN)=CC=C1,-,R945569,M18338,-,-,3-methyl-benzylamine,Koerner,charochkina,A5793,-,-,-,9.389999,Log unit,25,?C,NCc1cccc(c1)C,8
CC1=CC=C(CN)C=C1,-,R945570,M3935,-,-,4-methyl-benzylamine,Koerner,charochkina,A5793,-,-,-,9.45,Log unit,25,?C,NCc1ccc(cc1)C,5
NCC1=CC=C2OCOC2=C1,-,R945571,M71603,-,-,"3,4-Methylenedioxybenzylamine",Koerner,charochkina,A5793,-,-,-,9.37,Log unit,25,?C,NCc1ccc2OCOc2c1,8
NCC1=CC(=CC=C1)N(=O)=O,-,R945572,M124084,-,-,3-nitrobenzlyamine,Koerner,charochkina,A5793,-,-,-,8.585,Log unit,25,?C,NCc1cccc(c1)N(=O)=O,5
NCC1=CC=C(C=C1)N(=O)=O,-,R945573,M31919,-,-,4-Nitrobenzylamine,Koerner,charochkina,A5793,-,-,-,8.505,Log unit,25,?C,N(=O)(=O)c1ccc(cc1)CN,4
NCC1=C(F)C(F)=C(F)C(F)=C1F,-,R945574,M1107145,-,-,"2,3,4,5,6-pentafluorobenzylamine",Koerner,charochkina,A5793,-,-,-,7.67,Log unit,25,?C,NCc1c(c(c(F)c(F)c1F)F)F,8
CCCNCC1=CC=CC=C1,-,R945575,M70567,-,-,N-Propylbenzylamine,Koerner,charochkina,A5793,-,-,-,9.58,Log unit,25,?C,N(Cc1ccccc1)CCC,5
NC1=CC=CC=C1C1=CC=CC=C1,-,R945576,M10827,-,-,2-Aminobiphenyl,Koerner,charochkina,A5793,-,-,-,3.825,Log unit,25,?C,Nc1c(c2ccccc2)cccc1,10
NC1=CC(=CC=C1)C1=CC=CC=C1,-,R945577,M120343,-,-,3-AMINOBIPHENYL,Koerner,charochkina,A5793,-,-,-,4.25,Log unit,25,?C,Nc1cc(c2ccccc2)ccc1,10
NC1=CC=C(C=C1)C1=CC=CC=C1,-,R945578,M2097,-,-,4-Aminobiphenyl,Koerner,charochkina,A5793,-,-,-,4.285,Log unit,25,?C,Nc1ccc(c2ccccc2)cc1,8
COC1=CC=C(C=C1)C1=CC=C(N)C=C1,-,R945579,M1107146,-,-,4-amino-4'-methoxybiphenyl,Koerner,charochkina,A5793,-,-,-,4.25,Log unit,25,?C,Nc1ccc(cc1)c1ccc(OC)cc1,14
NC1=CC=C(C=C1)C1=CC=C(C=C1)N(=O)=O,-,R945580,M120140,-,-,4-amino-4'-nitropiphenyl,Koerner,charochkina,A5793,-,-,-,3.765,Log unit,25,?C,N(=O)(=O)c1ccc(c2ccc(cc2)N)cc1,8
NC1=CC=C(C=C1)C1=CC=C(N)C=C1,-,R945581,M3760,-,-,"4,4'-Diaminobiphenyl",Koerner,charochkina,A5793,-,-,-,5.02,Log unit,25,?C,Nc1ccc(c2ccc(cc2)N)cc1,8
CC1=CC=C(N)C2=CC=CC(C)=C12,-,R945582,M1107147,-,-,"1-amino-4,5-dimethylnapthalene",Koerner,charochkina,A5793,-,-,-,4.42,Log unit,25,?C,Nc1c2cccc(C)c2c(cc1)C,12
CC1=CC(N)=CC2=CC=CC(C)=C12,-,R945583,M1107148,-,-,"2-amino-4,5-dimethylnaphthalene",Koerner,charochkina,A5793,-,-,-,4.27,Log unit,25,?C,Nc1cc2cccc(C)c2c(c1)C,12
CC1=CC=CC(N)=C1C1=C(N)C=CC=C1C,-,R945584,M1107149,-,-,"2,2'-diamino-6,6'-dimethylbiphenyl",Koerner,charochkina,A5793,-,-,-,3.7,Log unit,25,?C,Nc1cccc(c1c1c(cccc1C)N)C,3
CC1=CC=C(N)C=C1C1=C(C)C=CC(N)=C1,-,R945585,M1107150,-,-,"3,3'-diamino-6,6'-dimethylbiphenyl",Koerner,charochkina,A5793,-,-,-,5,Log unit,25,?C,Nc1cc(c2c(ccc(c2)N)C)c(cc1)C,9
CC1=CC(N)=CC=C1C1=C(C)C=C(N)C=C1,-,R945586,M64974,-,-,"4,4'-Diamino-2,2'-dimethylbiphenyl",Koerner,charochkina,A5793,-,-,-,4.9,Log unit,25,?C,Nc1ccc(c2ccc(cc2C)N)c(c1)C,9
CC1=CC(=CC=C1N)C1=CC(C)=C(N)C=C1,-,R945587,M19027,-,-,"4,4'-Diamino-3,3'-dimethylbiphenyl",Koerner,charochkina,A5793,-,-,-,4.5,Log unit,25,?C,Nc1ccc(c2ccc(c(c2)C)N)cc1C,8
CN(C)C1=CC=C(C=C1)C(O)C1=CC=C(C=C1)N(C)C,-,R945588,M19015,-,-,"4,4'-bisdimethylaminodiphenylcarbinol",Koerner,charochkina,A5793,-,-,-,5.31,Log unit,25,?C,N(c1ccc(C(c2ccc(cc2)N(C)C)O)cc1)(C)C,10
NC1=C2CC3=CC=CC=C3C2=CC=C1,-,R945589,M31169,-,-,1-Aminofluorene,Koerner,charochkina,A5793,-,-,-,3.77,Log unit,25,?C,Nc1c2c(c3ccccc3C2)ccc1,13
NC1=CC=C2C(CC3=CC=CC=C23)=C1,-,R945590,M1315,-,-,2-Aminofluorene,Koerner,charochkina,A5793,-,-,-,4.53,Log unit,25,?C,Nc1ccc2c3ccccc3Cc2c1,11
NC1=CC=C2CC3=CC=CC=C3C2=C1,-,R945591,M120658,-,-,3-Aminofluorene,Koerner,charochkina,A5793,-,-,-,4.82,Log unit,25,?C,Nc1cc2c3ccccc3Cc2cc1,11
NC1=C2C(CC3=CC=CC=C23)=CC=C1,-,R945592,M120716,-,-,4-Aminofluorene,Koerner,charochkina,A5793,-,-,-,3.455,Log unit,25,?C,Nc1c2c3ccccc3Cc2ccc1,11
NC1=CC=C2C(CC3=CC=CC=C23)=C1O,-,R945593,M1107151,-,-,2-amino-1-hydroxyfluorene,Koerner,charochkina,A5793,-,-,-,4.82,Log unit,25,?C,Nc1ccc2c3ccccc3Cc2c1O,11
NC1=CC=C2C(CC3=CC=CC(O)=C23)=C1,-,R945594,M1107152,-,-,2-amino-5-hydroxyfluorene,Koerner,charochkina,A5793,-,-,-,4.73,Log unit,25,?C,Nc1ccc2c3c(cccc3Cc2c1)O,12
NC1=CC2=C(C=C1)C1=CC(O)=CC=C1C2,-,R945595,M1107153,-,-,2-amino-6-hydroxyfluorene,Koerner,charochkina,A5793,-,-,-,4.63,Log unit,25,?C,Nc1ccc2c(Cc3c2cc(cc3)O)c1,14
NC1=CC=C2C(CC3=C2C=CC(O)=C3)=C1,-,R945596,M1107154,-,-,2-amino-7-hydroxyfluorene,Koerner,charochkina,A5793,-,-,-,4.88,Log unit,25,?C,Nc1ccc2c3ccc(O)cc3Cc2c1,9
NC1CCC2=CC=CC=C12,-,R945597,M85347,-,-,1-Aminoindan,Koerner,charochkina,A5793,-,-,-,9.21,Log unit,25,?C,NC1c2ccccc2CC1,5
NC1CC2=CC=CC=C2C1,-,R945598,M72143,-,-,2-Aminoindan,Koerner,charochkina,A5793,-,-,-,9.57,Log unit,25,?C,NC1Cc2ccccc2C1,9
NC1=CC2=C(CCC2)C=C1,-,R945599,M36193,-,-,5-Aminoindan,Koerner,charochkina,A5793,-,-,-,5.31,Log unit,25,?C,Nc1ccc2CCCc2c1,9