Smiles,CASRN,Record ID,Molecule ID,External ID,N,Name,Introducer,Modifer,Article ID,PUBMED ID,PAGE,TABLE,pKa,pKa Unit,Temperature,Temperature Unit,Ionizable center smiles,IC group
CC1=NC([O-])=NC(N)=N1,-,R1207399,M748604,-,-,"2-amino-4-hydroxy-6-methyl-1,3,5-triazine",Koerner,charochkina,A5793,-,-,-,9.2,Log unit,25,?C,[O-]c1nc(nc(n1)C)N,4
NC1=NC(=NC([O-])=N1)C1=CC=CC=C1,-,R1207400,M1158153,-,-,"2-amino-4-hydroxy-6-phenyl-1,3,5-triazine",Koerner,charochkina,A5793,-,-,-,8.1,Log unit,25,?C,[O-]c1nc(c2ccccc2)nc(n1)N,5
CC1=NC(C)=C(C)N=N1,-,R1207401,M1158154,-,-,"3,5,6-trimethyl-1,2,4-triazine",Koerner,charochkina,A5793,-,-,-,2.8,Log unit,25,?C,n1nc(nc(c1C)C)C,3
NC1=NC=NC=N1,-,R1207402,M73804,-,-,"2-Amino-1,3,5-triazine",Koerner,charochkina,A5793,-,-,-,2.9,Log unit,25,?C,n1cnc(N)nc1,5
NC1=NC(N)=NC=N1,-,R1207403,M66631,-,-,"2,4-Diamino-1,3,5-triazine",Koerner,charochkina,A5793,-,-,-,3.9,Log unit,25,?C,n1cnc(N)nc1N,6
NC1=NC(CC([O-])=O)=NC(N)=N1,-,R1207404,M656376,-,-,"2,4-diamino-6-carboxymethyl-1,3,5-triazine",Koerner,charochkina,A5793,-,-,-,4.1,Log unit,25,?C,n1c(N)nc(N)nc1CC(=O)[O-],5
NC1=NC(=NC(N)=N1)C1=CC=C(Cl)C=C1,-,R1207405,M29441,-,-,"2,4-diamino-6-(p-chlorobenzyl)1,3,5-triazine",Koerner,charochkina,A5793,-,-,-,3.97,Log unit,25,?C,n1c(c2ccc(Cl)cc2)nc(nc1N)N,5
CC1=NC(N)=NC(N)=N1,-,R1207406,M66839,-,-,"2,4-Diamino-6-methyl-1,3,5-triazine",Koerner,charochkina,A5793,-,-,-,4.3,Log unit,25,?C,n1c(nc(nc1C)N)N,6
NC1=NC(CO)=NC(N)=N1,-,R1207407,M1158155,-,-,"2,4-diamino-6-hydroxymethyl-1,3,5-triazine",Koerner,charochkina,A5793,-,-,-,3.8,Log unit,25,?C,n1c(nc(nc1CO)N)N,6
CCCOC1=NC(N)=NC(N)=N1,-,R1207408,M31091,-,-,"2,4-diamino-6-propoxy-1,3,5-triazine",Koerner,charochkina,A5793,-,-,-,3.4,Log unit,25,?C,n1c(nc(nc1OCCC)N)N,5
NC1=NC(N)=NC(N)=N1,-,R1207409,M18673,-,-,"2,4,6-Triamino-1,3,5-triazine",Koerner,charochkina,A5793,-,-,-,4.8,Log unit,25,?C,n1c(nc(nc1N)N)N,n
COCNC1=NC(NCOC)=NC(NCOC)=N1,-,R1207412,M71221,-,-,"2,4,6-tris(methoxy)methylamino-1,3,5-triazine",Koerner,charochkina,A5793,-,-,-,3.2,Log unit,25,?C,n1c(nc(nc1NCOC)NCOC)NCOC,n
[O-]C1=CC2=C(C=CC=C2)C=N1,-,R1207422,M1106868,-,-,3-hydroxyisoquinoline,Koerner,charochkina,A5793,-,-,-,9.62,Log unit,25,?C,[O-]c1ncc2ccccc2c1,n
Oc1cc2ccccc2c[n+]1,-,R1207423,M1158156,-,-,3-hydroxyisoquinoline,Koerner,charochkina,A5793,-,-,-,2.18,Log unit,25,?C,Oc1[n+]cc2ccccc2c1,oh
Sc1[n+]ccc2ccccc12,-,R1207431,M1158157,-,-,1-mercaptoisoquinoline,Koerner,charochkina,A5793,-,-,-,-1.9,Log unit,25,?C,Sc1[n+]ccc2c1cccc2,sh
[S-]C1=NC=CC2=C1C=CC=C2,-,R1207432,M1106871,-,-,1-mercaptoisoquinoline,Koerner,charochkina,A5793,-,-,-,10.86,Log unit,25,?C,[S-]c1nccc2c1cccc2,n
Sc1cc2ccccc2c[n+]1,-,R1207433,M1158158,-,-,3-mercaptoisoquinoline,Koerner,charochkina,A5793,-,-,-,0.39,Log unit,25,?C,Sc1[n+]cc2ccccc2c1,sh
[S-]C1=NC=C2C=CC=CC2=C1,-,R1207434,M1106872,-,-,3-mercaptoisoquinoline,Koerner,charochkina,A5793,-,-,-,8.62,Log unit,25,?C,[S-]c1ncc2ccccc2c1,n
NC1=CC=NC2=C1C=CC=C2O,-,R1207456,M1107303,-,-,4-amino-8-hydroxyquinoline,Koerner,charochkina,A5793,-,-,-,10.71,Log unit,25,?C,n1ccc(N)c2c1c(ccc2)O,oh
Sc1ccc(Br)c2ccc[n+]c12,-,R1207474,M1158159,-,-,5-bromo-8-mercaptoquinoline,Koerner,charochkina,A5793,-,-,-,1.43,Log unit,25,?C,Sc1ccc(Br)c2ccc[n+]c12,sh
[S-]C1=CC=C(Br)C2=C1N=CC=C2,-,R1207475,M1106888,-,-,5-bromo-8-mercaptoquinoline,Koerner,charochkina,A5793,-,-,-,7.3,Log unit,25,?C,[S-]c1ccc(Br)c2cccnc12,n
Sc1cc(Br)cc2ccc[n+]c12,-,R1207476,M1158160,-,-,6-bromo-8-mercaptoquinoline,Koerner,charochkina,A5793,-,-,-,2.22,Log unit,25,?C,Sc1cc(Br)cc2c1[n+]ccc2,sh
OC(=O)c1ccc2ccccc2[n+]1,-,R1207479,M1158161,-,-,2-Carboxyquinoline,Koerner,charochkina,A5793,-,-,-,1,Log unit,25,?C,OC(=O)c1[n+]c2ccccc2cc1,co2h
OC(=O)c1cccc2ccc[n+]c12,-,R1207482,M1158162,-,-,8-Carboxyquinoline,Koerner,charochkina,A5793,-,-,-,1.82,Log unit,25,?C,OC(=O)c1c2[n+]cccc2ccc1,co2h
OC1=CC=C(C([O-])=O)C2=C1N=CC=C2,-,R1207485,M147583,-,-,5-carboxy-8-hydroxyquinoline,Koerner,charochkina,A5793,-,-,-,4.8,Log unit,25,?C,[O-]C(=O)c1c2c(nccc2)c(cc1)O,n
[S-]C1=CC=C(Cl)C2=C1N=CC=C2,-,R1207496,M1106894,-,-,5-chloro-8-mercaptoquinoline,Koerner,charochkina,A5793,-,-,-,7.34,Log unit,25,?C,[S-]c1ccc(Cl)c2cccnc12,n
Fc1ccc(S)c2[n+]cccc12,-,R1207516,M1158163,-,-,5-fluoro-8-mercaptoquinoline,Koerner,charochkina,A5793,-,-,-,1.97,Log unit,25,?C,Sc1ccc(F)c2c1[n+]ccc2,sh
FC1=CC=C([S-])C2=C1C=CC=N2,-,R1207517,M1106903,-,-,5-fluoro-8-mercaptoquinoline,Koerner,charochkina,A5793,-,-,-,7.44,Log unit,25,?C,[S-]c1ccc(F)c2c1nccc2,n
NNc1ccc2ccccc2[n+]1,-,R1207519,M1158164,-,-,2-Hydrazinoquinoline,Koerner,charochkina,A5793,-,-,-,2,Log unit,25,?C,NNc1[n+]c2ccccc2cc1,4
NNC1=CC2=CC=CC=C2N=C1,-,R1207520,M41387,-,-,3-hydrazinoquinoline,Koerner,charochkina,A5793,-,-,-,4.85,Log unit,25,?C,NNc1cc2ccccc2nc1,n
NNc1c[n+]c2ccccc2c1,-,R1207521,M1158165,-,-,3-hydrazinoquinoline,Koerner,charochkina,A5793,-,-,-,2.47,Log unit,25,?C,NNc1cc2ccccc2[n+]c1,4
NNc1cc[n+]c2ccccc12,-,R1207523,M1158166,-,-,4-hydrazinoquinoline,Koerner,charochkina,A5793,-,-,-,0.8,Log unit,25,?C,NNc1c2ccccc2[n+]cc1,4
NNC1=CC=CC2=C1C=CC=N2,-,R1207524,M1106905,-,-,5-hydrazinoquinoline,Koerner,charochkina,A5793,-,-,-,3.5,Log unit,25,?C,NNc1c2c(nccc2)ccc1,4
NNC1=CC=CC2=C1C=CC=N2,-,R1207525,M1106905,-,-,5-hydrazinoquinoline,Koerner,charochkina,A5793,-,-,-,5.36,Log unit,25,?C,NNc1c2c(nccc2)ccc1,n
NNc1ccc2[n+]cccc2c1,-,R1207526,M1158167,-,-,6-hydrazinoquinoline,Koerner,charochkina,A5793,-,-,-,3.53,Log unit,25,?C,c1c[n+]c2ccc(NN)cc2c1,4
NNC1=CC2=C(C=C1)N=CC=C2,-,R1207527,M1106906,-,-,6-hydrazinoquinoline,Koerner,charochkina,A5793,-,-,-,5.5,Log unit,25,?C,NNc1ccc2ncccc2c1,n
NNC1=CC2=C(C=CC=N2)C=C1,-,R1207528,M1106907,-,-,7-hydrazinoquinoline,Koerner,charochkina,A5793,-,-,-,6.71,Log unit,25,?C,NNc1cc2ncccc2cc1,n
NNc1ccc2ccc[n+]c2c1,-,R1207529,M1158168,-,-,7-hydrazinoquinoline,Koerner,charochkina,A5793,-,-,-,2.8,Log unit,25,?C,NNc1cc2[n+]cccc2cc1,4
NNC1=CC=CC2=C1N=CC=C2,-,R1207530,M1106908,-,-,8-hydrazinoquinoline,Koerner,charochkina,A5793,-,-,-,5.27,Log unit,25,?C,NNc1c2ncccc2ccc1,n
NNc1cccc2ccc[n+]c12,-,R1207531,M1158169,-,-,8-hydrazinoquinoline,Koerner,charochkina,A5793,-,-,-,1.3,Log unit,25,?C,NNc1c2[n+]cccc2ccc1,4
Cc1cc(NN)[n+]c2ccccc12,-,R1207533,M1158170,-,-,2-hydrazino-4-methylquinoline,Koerner,charochkina,A5793,-,-,-,2.8,Log unit,25,?C,NNc1[n+]c2ccccc2c(c1)C,4
[O-]C1=NC2=C(C=CC=C2)C=C1,-,R1207534,M6196,-,-,2-Hydroxyquinoline,Koerner,charochkina,A5793,-,-,-,11.76,Log unit,25,?C,[O-]c1nc2ccccc2cc1,n
Oc1ccc2ccccc2[n+]1,-,R1207535,M1158171,-,-,2-Hydroxyquinoline,Koerner,charochkina,A5793,-,-,-,-0.31,Log unit,25,?C,Oc1[n+]c2ccccc2cc1,oh
[O-]C1=CC=NC2=C1C=CC=C2,-,R1207537,M8690,-,-,4-Hydroxyquinoline,Koerner,charochkina,A5793,-,-,-,11.28,Log unit,25,?C,[O-]c1ccnc2ccccc12,n
Oc1cc[n+]c2ccccc12,-,R1207538,M1158172,-,-,4-Hydroxyquinoline,Koerner,charochkina,A5793,-,-,-,2.2,Log unit,25,?C,Oc1cc[n+]c2ccccc12,oh
Sc1ccc(I)c2ccc[n+]c12,-,R1207572,M1158173,-,-,5-iodo-8-mercaptoquinoline,Koerner,charochkina,A5793,-,-,-,1.34,Log unit,25,?C,Sc1ccc(I)c2ccc[n+]c12,sh
[S-]C1=CC=C(I)C2=C1N=CC=C2,-,R1207573,M1106916,-,-,5-iodo-8-mercaptoquinoline,Koerner,charochkina,A5793,-,-,-,7.48,Log unit,25,?C,[S-]c1ccc(I)c2cccnc12,n
Sc1ccc2ccccc2[n+]1,-,R1207574,M1158174,-,-,2-Mercaptoquinoline,Koerner,charochkina,A5793,-,-,-,-1.44,Log unit,25,?C,Sc1[n+]c2ccccc2cc1,sh
[S-]C1=NC2=C(C=CC=C2)C=C1,-,R1207575,M27217,-,-,2-Mercaptoquinoline,Koerner,charochkina,A5793,-,-,-,10.25,Log unit,25,?C,[S-]c1nc2ccccc2cc1,n
[S-]C1=CN=C2C=CC=CC2=C1,-,R1207576,M1106917,-,-,3-mercaptoquinoline,Koerner,charochkina,A5793,-,-,-,6.17,Log unit,25,?C,[S-]c1cnc2ccccc2c1,n
Sc1c[n+]c2ccccc2c1,-,R1207577,M1158175,-,-,3-mercaptoquinoline,Koerner,charochkina,A5793,-,-,-,2.3,Log unit,25,?C,Sc1c[n+]c2ccccc2c1,sh
Sc1cc[n+]c2ccccc12,-,R1207578,M1158176,-,-,4-mercaptoquinoline,Koerner,charochkina,A5793,-,-,-,0.77,Log unit,25,?C,Sc1cc[n+]c2c1cccc2,sh
[S-]C1=CC=NC2=C1C=CC=C2,-,R1207579,M1106918,-,-,4-mercaptoquinoline,Koerner,charochkina,A5793,-,-,-,8.87,Log unit,25,?C,[S-]c1ccnc2c1cccc2,n
[S-]C1=CC=CC2=C1C=CC=N2,-,R1207580,M1106919,-,-,5-mercaptoquinoline,Koerner,charochkina,A5793,-,-,-,6.52,Log unit,25,?C,[S-]c1cccc2c1cccn2,n
Sc1ccc2[n+]cccc2c1,-,R1207581,M1158177,-,-,6-mercaptoquinoline,Koerner,charochkina,A5793,-,-,-,3.91,Log unit,25,?C,Sc1ccc2[n+]cccc2c1,sh
[S-]C1=CC=C2N=CC=CC2=C1,-,R1207582,M1106920,-,-,6-mercaptoquinoline,Koerner,charochkina,A5793,-,-,-,6.5,Log unit,25,?C,[S-]c1ccc2ncccc2c1,n
Sc1cccc2ccc[n+]c12,-,R1207583,M1158178,-,-,8-Mercaptoquinoline,Koerner,charochkina,A5793,-,-,-,2.015,Log unit,25,?C,Sc1cccc2c1[n+]ccc2,sh
[S-]C1=CC=CC2=C1N=CC=C2,-,R1207584,M1106921,-,-,8-Mercaptoquinoline,Koerner,charochkina,A5793,-,-,-,8.33,Log unit,25,?C,[S-]c1cccc2c1nccc2,n
Cc1cc(S)c2[n+]ccc(C)c2c1,-,R1207585,M1158179,-,-,"8-mercapto-4,6-dimethylquinoline",Koerner,charochkina,A5793,-,-,-,2.3,Log unit,25,?C,Sc1cc(cc2c1[n+]ccc2C)C,sh
CC1=CC2=C(N=CC=C2C)C([S-])=C1,-,R1207586,M1106922,-,-,"8-mercapto-4,6-dimethylquinoline",Koerner,charochkina,A5793,-,-,-,9.3,Log unit,25,?C,[S-]c1cc(cc2c1nccc2C)C,n
Cc1ccc2cccc(S)c2[n+]1,-,R1207587,M1158180,-,-,8-mercapto-2-methylquinoline,Koerner,charochkina,A5793,-,-,-,2.28,Log unit,25,?C,Sc1cccc2c1[n+]c(cc2)C,sh
Cc1cc[n+]c2c(S)cccc12,-,R1207588,M1158181,-,-,8-mercapto-4-methylquinoline,Koerner,charochkina,A5793,-,-,-,2.07,Log unit,25,?C,Sc1cccc2c1[n+]ccc2C,sh
CC1=CC=NC2=C1C=CC=C2[S-],-,R1207589,M1106923,-,-,8-mercapto-4-methylquinoline,Koerner,charochkina,A5793,-,-,-,9.1,Log unit,25,?C,[S-]c1cccc2c1nccc2C,n
Cc1cc(S)c2[n+]cccc2c1,-,R1207590,M1158182,-,-,8-mercapto-6-methylquinoline,Koerner,charochkina,A5793,-,-,-,2.11,Log unit,25,?C,Sc1cc(cc2c1[n+]ccc2)C,sh
CC1=CC2=C(N=CC=C2)C([S-])=C1,-,R1207591,M1106924,-,-,8-mercapto-6-methylquinoline,Koerner,charochkina,A5793,-,-,-,8.49,Log unit,25,?C,[S-]c1cc(cc2c1nccc2)C,n
Cc1ccc2ccc[n+]c2c1S,-,R1207592,M1158183,-,-,8-mercapto-7-methylquinoline,Koerner,charochkina,A5793,-,-,-,2.25,Log unit,25,?C,Sc1c(ccc2c1[n+]ccc2)C,sh
CC1=C([S-])C2=C(C=CC=N2)C=C1,-,R1207593,M1106925,-,-,8-mercapto-7-methylquinoline,Koerner,charochkina,A5793,-,-,-,9.27,Log unit,25,?C,[S-]c1c(ccc2c1nccc2)C,n
Sc1cccc2ccc([n+]c12)C1=CC=CC=C1,-,R1207594,M1158184,-,-,8-mercapto-2-phenylquinoline,Koerner,charochkina,A5793,-,-,-,1.28,Log unit,25,?C,Sc1cccc2c1[n+]c(cc2)c1ccccc1,sh
[S-]C1=CC=CC2=C1N=C(C=C2)C1=CC=CC=C1,-,R1207595,M1106926,-,-,8-mercapto-2-phenylquinoline,Koerner,charochkina,A5793,-,-,-,7.87,Log unit,25,?C,[S-]c1cccc2c1nc(cc2)c1ccccc1,n
[O-]S(=O)(=O)c1ccc(S)c2[n+]cccc12,-,R1207596,M1158185,-,-,8-mercapto-5-sulphoquinoline,Koerner,charochkina,A5793,-,-,-,0.92,Log unit,25,?C,[O-]S(=O)(=O)c1ccc(S)c2[n+]cccc12,sh
[O-]S(=O)(=O)C1=CC=C([S-])C2=C1C=CC=N2,-,R1207597,M1106927,-,-,8-mercapto-5-sulphoquinoline,Koerner,charochkina,A5793,-,-,-,7.63,Log unit,25,?C,[S-]c1ccc(S(=O)(=O)[O-])c2c1nccc2,n
Cc1ccc2c(cc(c(O)c2[n+]1)N(=O)=O)S([O-])(=O)=O,-,R1207598,M1158186,-,-,2-methyl-8-hydroxy-7-nitro-5-sulphoquinoline,Koerner,charochkina,A5793,-,-,-,0.7,Log unit,25,?C,Oc1c(cc(S(=O)(=O)[O-])c2ccc(C)[n+]c12)N(=O)=O,oh
CC1=NC2=C(C=C1)C(=CC(=C2[O-])N(=O)=O)S([O-])(=O)=O,-,R1207599,M1106928,-,-,2-methyl-8-hydroxy-7-nitro-5-sulphoquinoline,Koerner,charochkina,A5793,-,-,-,6.24,Log unit,25,?C,[O-]c1c(cc(S(=O)(=O)[O-])c2ccc(C)nc12)N(=O)=O,n
C1=CC2=CN=CC=C2N=C1,-,R1207616,M1158187,-,-,"1,6-naphthyridine",Koerner,charochkina,A5793,-,-,-,3.76,Log unit,25,?C,n1ccc2ncccc2c1,2
O=N(=O)C1=CC2=CN=CC=C2N=C1,-,R1207617,M1158188,-,-,"3-nitro-1,6-naphthyridine",Koerner,charochkina,A5793,-,-,-,2.32,Log unit,25,?C,n1ccc2ncc(cc2c1)N(=O)=O,2
C1=CC2=CC=NC=C2N=C1,-,R1207618,M1158189,-,-,"1,7-naphthyridine",Koerner,charochkina,A5793,-,-,-,3.61,Log unit,25,?C,n1ccc2cccnc2c1,2
C1=CC2=CN=CN=C2C=C1,-,R1207619,M5334,-,-,Quinazoline,Koerner,charochkina,A5793,-,-,-,1.5,Log unit,25,?C,n1cnc2ccccc2c1,2
NC1=NC2=C(C=CC=C2)C=N1,-,R1207620,M282713,-,-,2-aminoquinazoline,Koerner,charochkina,A5793,-,-,-,4.81,Log unit,25,?C,n1cc2ccccc2nc1N,3
NC1=CC=CC2=NC=NC=C12,-,R1207621,M1158190,-,-,5-aminoquinazoline,Koerner,charochkina,A5793,-,-,-,3.56,Log unit,25,?C,n1cnc2cccc(c2c1)N,4
NC1=CC2=CN=CN=C2C=C1,-,R1207622,M196453,-,-,6-aminoquinazoline,Koerner,charochkina,A5793,-,-,-,3.28,Log unit,25,?C,Nc1cc2cncnc2cc1,4
NC1=CC2=NC=NC=C2C=C1,-,R1207623,M197949,-,-,7-aminoquinazoline,Koerner,charochkina,A5793,-,-,-,4.59,Log unit,25,?C,n1cnc2cc(N)ccc2c1,4
NC1=CC=CC2=CN=CN=C12,-,R1207624,M1158191,-,-,8-aminoquinazoline,Koerner,charochkina,A5793,-,-,-,2.8,Log unit,25,?C,n1cnc2c(cccc2c1)N,4
COC1=CC=CC2=C1C=NC(N)=N2,-,R1207625,M1158192,-,-,2-amino-5-methoxyquinazoline,Koerner,charochkina,A5793,-,-,-,4.83,Log unit,25,?C,n1c(nc2cccc(c2c1)OC)N,4
COC1=CC2=C(C=C1)N=C(N)N=C2,-,R1207626,M1158193,-,-,2-amino-6-methoxyquinazoline,Koerner,charochkina,A5793,-,-,-,4.72,Log unit,25,?C,n1c(nc2ccc(OC)cc2c1)N,4
COC1=CC2=C(C=C1)C=NC(N)=N2,-,R1207627,M1158194,-,-,2-amino-7-methoxyquinazoline,Koerner,charochkina,A5793,-,-,-,5.01,Log unit,25,?C,n1c(nc2cc(ccc2c1)OC)N,4
COC1=CC=CC2=C1N=C(N)N=C2,-,R1207628,M1158195,-,-,2-amino-8-methoxyquinazoline,Koerner,charochkina,A5793,-,-,-,4.58,Log unit,25,?C,n1c(nc2c(cccc2c1)OC)N,4
CC1=NC(N)=NC2=CC=CC=C12,-,R1207629,M654572,-,-,2-amino-4-methylquinazoline,Koerner,charochkina,A5793,-,-,-,5.31,Log unit,25,?C,n1c(c2ccccc2nc1N)C,3
CC1=NC(=NC2=CC=CC=C12)C(C)(C)C,-,R1207630,M1158196,-,-,2-t-butyl-4-methylquinazoline,Koerner,charochkina,A5793,-,-,-,3.82,Log unit,25,?C,n1c(c2ccccc2nc1C(C)(C)C)C,1
CC1=NC(Cl)=NC2=C1C=CC=C2,-,R1207631,M1158197,-,-,2-chloro-4-methylquinazoline,Koerner,charochkina,A5793,-,-,-,-0.75,Log unit,25,?C,n1c(Cl)nc2ccccc2c1C,2
ClC1=NC=C2C=CC=CC2=N1,-,R1207632,M51726,-,-,2-chloroquinazoline,Koerner,charochkina,A5793,-,-,-,-1.6,Log unit,25,?C,n1c(Cl)nc2c(c1)cccc2,2
N#CC1=NC2=C(C=CC=C2)C=N1,-,R1207633,M1158198,-,-,2-cyanoquinazoline,Koerner,charochkina,A5793,-,-,-,-2.56,Log unit,25,?C,n1cc2ccccc2nc1C#N,2
NC1=NC(N)=C2C=CC=CC2=N1,-,R1207634,M25928,-,-,"2,4-DIAMINOQUINAZOLINE",Koerner,charochkina,A5793,-,-,-,7.96,Log unit,25,?C,n1c(nc(N)c2c1cccc2)N,5
NC1=NC2=C(C(N)=N1)C(Cl)=CC=C2Cl,-,R1207635,M1158199,-,-,"2,4-diamino-5,8-dichloroquinazoline",Koerner,charochkina,A5793,-,-,-,6.07,Log unit,25,?C,n1c2c(Cl)ccc(Cl)c2c(nc1N)N,6
CCC1=CC=CC2=C(N)N=C(N)N=C12,-,R1207636,M1158200,-,-,"2,4-diamino-8-ehtylquinazoline",Koerner,charochkina,A5793,-,-,-,8.29,Log unit,25,?C,n1c(nc(N)c2c1c(ccc2)CC)N,5
CC1=C2C=CC=CC2=NC(=N1)C(Cl)Cl,-,R1207639,M1158201,-,-,2-dichloromethyl-4-methylquinazoline,Koerner,charochkina,A5793,-,-,-,0.11,Log unit,25,?C,n1c(C(Cl)Cl)nc2c(c1C)cccc2,1
CC1=NC(N)=NC(N)=C1C1=CC=CC=C1,-,R1207283,M165600,-,-,"2,4-diamino-6-methyl-5-phenylpyrimidine",Koerner,charochkina,A5793,-,-,-,7.4,Log unit,25,?C,n1c(c(c2ccccc2)c(nc1N)N)C,5
NC1=NC(N)=C(C=N1)N(=O)=O,-,R1207284,M1158077,-,-,"2,4-diamino-5-nitropyrimidine",Koerner,charochkina,A5793,-,-,-,2.58,Log unit,25,?C,n1cc(c(N)nc1N)N(=O)=O,6
NC1=CC(OC2=CC=CC=C2)=NC(N)=N1,-,R1207285,M1158078,-,-,"2,4-diamino-6-phenoxypyrimidine",Koerner,charochkina,A5793,-,-,-,4.8,Log unit,25,?C,n1c(nc(Oc2ccccc2)cc1N)N,5
NC1=NC=C(C(N)=N1)C1=CC=CC=C1,-,R1207286,M165377,-,-,"2,4-diamino-5-phenylpyrimidine",Koerner,charochkina,A5793,-,-,-,6.9,Log unit,25,?C,n1cc(c2ccccc2)c(nc1N)N,6
NC1=CC(=NC(N)=N1)C1=CC=CC=C1,-,R1207287,M1158079,-,-,"2,4-diamino-6-phenylpyrimidine",Koerner,charochkina,A5793,-,-,-,6.7,Log unit,25,?C,n1c(c2ccccc2)cc(nc1N)N,6
NC1=NC(N)=C(C2=CC=CC=C2)C(=N1)C(F)(F)F,-,R1207288,M1158080,-,-,"2,4-diamino-5-phenyl-6-trifluoromethylpyrimidine",Koerner,charochkina,A5793,-,-,-,3.25,Log unit,25,?C,n1c(c(c2ccccc2)c(nc1N)C(F)(F)F)N,5
COC1=CC(CC2=C(N)N=C(N)N=C2)=CC(OC)=C1OC,-,R1207289,M4339,-,-,"2,4-diamino-5-(3',4',5'-trimethoxybenzyl)pyrimidine",Koerner,charochkina,A5793,-,-,-,7.12,Log unit,25,?C,n1c(nc(N)c(c1)Cc1cc(OC)c(OC)c(c1)OC)N,5
COC1=CC(=CC(OC)=C1OC)C1=C(N)N=C(N)N=C1,-,R1207290,M1158081,-,-,"2,4-diamino-5-(3',4',5'-trimethoxyphenyl)pyrimidine",Koerner,charochkina,A5793,-,-,-,6.7,Log unit,25,?C,n1c(nc(N)c(c1)c1cc(OC)c(OC)c(c1)OC)N,5
CC1=NC(NN)=C(C(NN)=N1)N(=O)=O,-,R1207291,M1158082,-,-,"4,6-dihydrazino-2-methyl-5-nitropyrimidine",Koerner,charochkina,A5793,-,-,-,4.1,Log unit,25,?C,NNc1c(N(=O)=O)c(nc(n1)C)NN,10
COC1=CC(OC)=NC=N1,-,R1207292,M30028,-,-,"4,6-Dimethoxypyrimidine",Koerner,charochkina,A5793,-,-,-,1.2,Log unit,25,?C,n1cnc(OC)cc1OC,2
COC1=C(OC)N=C(C)N=C1,-,R1207293,M1158083,-,-,"4,5-dimethoxy-2-methylpyrimidine",Koerner,charochkina,A5793,-,-,-,4.11,Log unit,25,?C,n1cc(OC)c(OC)nc1C,2
CSC1=NC(C)=NC(C)=C1,-,R1207294,M1158084,-,-,"2,4-dimethyl-6-methylthiopyrimidine",Koerner,charochkina,A5793,-,-,-,4,Log unit,25,?C,n1c(nc(SC)cc1C)C,1
CSC1=NC(C)=CC(C)=N1,-,R1207295,M33157,-,-,"4,6-dimethyl-2-methylthiopyrimidine",Koerner,charochkina,A5793,-,-,-,2.12,Log unit,25,?C,n1c(SC)nc(cc1C)C,1
CC1=CC(=NC(C)=N1)S([O-])(=O)=O,-,R1207296,M1158085,-,-,"2,6-dimethyl-4-sulphopyrimidine",Koerner,charochkina,A5793,-,-,-,1.62,Log unit,25,?C,n1c(nc(S(=O)(=O)[O-])cc1C)C,1
CCOC1=NC=CC=N1,-,R1207298,M28642,-,-,2-ethoxypyrimidine,Koerner,charochkina,A5793,-,-,-,1.27,Log unit,25,?C,n1cccnc1OCC,2
CCOC(=O)C1=C(OCC)N=C(C)N=C1,-,R1207299,M1158086,-,-,4-ethoxy-5-ethoxycarbonyl-2-methylpyrimidine,Koerner,charochkina,A5793,-,-,-,2.5,Log unit,25,?C,n1cc(c(OCC)nc1C)C(=O)OCC,2
CCOC1=NC=C(C)C=N1,-,R1207300,M1158087,-,-,2-ethoxy-5-methylpyrimidine,Koerner,charochkina,A5793,-,-,-,1.75,Log unit,25,?C,n1cc(cnc1OCC)C,2
CCSC1=NC=CC=N1,-,R1207301,M1158088,-,-,2-ethylthiopyrimidine,Koerner,charochkina,A5793,-,-,-,0.7,Log unit,25,?C,n1c(SCC)nccc1,2
CCSC1=NC=NC=C1,-,R1207302,M1158089,-,-,4-ethylthiopyrimidine,Koerner,charochkina,A5793,-,-,-,2.6,Log unit,25,?C,n1cnc(SCC)cc1,1
COC1=CC(C)=NC(NN)=N1,-,R1207303,M1067331,-,-,2-hydrazino-4-methoxy-6-methylpyrimidine,Koerner,charochkina,A5793,-,-,-,6.2,Log unit,25,?C,n1c(nc(OC)cc1C)NN,5
[O-]C1=NC=CC=N1,-,R1207304,M11958,-,-,2-Hydroxypyrimidine,Koerner,charochkina,A5793,-,-,-,9.2,Log unit,25,?C,[O-]c1ncccn1,n
[O-]c1nccc[n+]1,-,R1207305,M1158090,-,-,2-Hydroxypyrimidine,Koerner,charochkina,A5793,-,-,-,2.15,Log unit,25,?C,[O-]c1[n+]cccn1,n
[O-]C1=NC=NC=C1,-,R1207306,M2104,-,-,4-Hydroxypyrimidine,Koerner,charochkina,A5793,-,-,-,8.63,Log unit,25,?C,[O-]c1ncncc1,1
COC1=CN=CN=C1[O-],-,R1207309,M1158091,-,-,4-hydroxy-5-methoxypyrimdine,Koerner,charochkina,A5793,-,-,-,8.64,Log unit,25,?C,[O-]c1ncncc1OC,2
COC1=NC(C)=CC([O-])=N1,-,R1207310,M1106842,-,-,4-hydroxy-2-methoxy-6-methylpyrimidine,Koerner,charochkina,A5793,-,-,-,8.5,Log unit,25,?C,[O-]c1nc(nc(c1)C)OC,n
CC1=NC([O-])=NC=C1,-,R1207311,M33502,-,-,2-hydroxy-4-methylpyrimidine,Koerner,charochkina,A5793,-,-,-,9.9,Log unit,25,?C,[O-]c1nccc(n1)C,n
Cc1cc[n+]c([O-])n1,-,R1207312,M1158092,-,-,2-hydroxy-4-methylpyrimidine,Koerner,charochkina,A5793,-,-,-,3.06,Log unit,25,?C,[O-]c1[n+]ccc(n1)C,n
CC1=CC([O-])=NC=N1,-,R1207313,M28324,-,-,4-Hydroxy-6-methylpyrimidine,Koerner,charochkina,A5793,-,-,-,9.1,Log unit,25,?C,[O-]c1ncnc(c1)C,2
COC1=C(C(NN)=NC=N1)N(=O)=O,-,R1207315,M1158093,-,-,4-hydrazino-6-methoxy-5-nitropyrimidine,Koerner,charochkina,A5793,-,-,-,2.72,Log unit,25,?C,NNc1c(N(=O)=O)c(ncn1)OC,5
NNC1=NC=NC=C1N(=O)=O,-,R1207316,M1158094,-,-,4-hydrazino-5-nitropyrimidine,Koerner,charochkina,A5793,-,-,-,2.58,Log unit,25,?C,NNc1ncncc1N(=O)=O,6
CC1=CC(C)=NC([O-])=N1,-,R1207317,M65384,-,-,"2-Hydroxy-4,6-dimethylpyrimidine",Koerner,charochkina,A5793,-,-,-,10,Log unit,25,?C,[O-]c1nc(cc(n1)C)C,n
Cc1cc(C)[n+]c([O-])n1,-,R1207318,M1158095,-,-,"2-Hydroxy-4,6-dimethylpyrimidine",Koerner,charochkina,A5793,-,-,-,3.7,Log unit,25,?C,[O-]c1[n+]c(cc(n1)C)C,n
CC1=CC([O-])=NC(C)=N1,-,R1207319,M77661,-,-,"4-Hydroxy-2,6-dimethylpyrimidine",Koerner,charochkina,A5793,-,-,-,9.82,Log unit,25,?C,[O-]c1nc(nc(c1)C)C,2
CC(C)C1=C([O-])N=CN=C1[S-],-,R1207320,M1158096,-,-,4-hydroxy-5-isopropyl-6-mercaptopyrimidine,Koerner,charochkina,A5793,-,-,-,12.3,Log unit,25,?C,[O-]c1c(c([S-])ncn1)C(C)C,2
CC(C)c1c([O-])nc[n+]c1[S-],-,R1207321,M1158097,-,-,4-hydroxy-5-isopropyl-6-mercaptopyrimidine,Koerner,charochkina,A5793,-,-,-,5.1,Log unit,25,?C,[S-]c1[n+]cnc(c1C(C)C)[O-],n