Smiles,CASRN,Record ID,Molecule ID,External ID,N,Name,Introducer,Modifer,Article ID,PUBMED ID,PAGE,TABLE,pKa,pKa Unit,Temperature,Temperature Unit,Ionizable center smiles,IC group
CCCCOC(=O)C1=CC=C(N)C=C1,-,R945199,M4709,-,-,4-butoxycarbonyl-aniline,Koerner,charochkina,A5793,-,-,-,2.472,Log unit,25,?C,Nc1ccc(cc1)C(=O)OCCCC,13
CCCCNC1=CC=CC=C1,-,R945200,M24685,-,-,N-n-butylaniline,Koerner,charochkina,A5793,-,-,-,5.035,Log unit,25,?C,N(c1ccccc1)CCCC,4
CCCCC1=CC=CC=C1N,-,R945201,M71721,-,-,2-n-butyl-aniline,Koerner,charochkina,A5793,-,-,-,4.26,Log unit,25,?C,Nc1ccccc1CCCC,10
CC(C)(C)C1=CC=CC=C1N,-,R945202,M31121,-,-,2-t-butyl-aniline,Koerner,charochkina,A5793,-,-,-,4.405,Log unit,25,?C,Nc1ccccc1C(C)(C)C,10
CC(C)(C)C1=CC=CC(N)=C1,-,R945203,M75317,-,-,3-t-butyl-aniline,Koerner,charochkina,A5793,-,-,-,4.66,Log unit,25,?C,Nc1cccc(C(C)(C)C)c1,10
CC(C)(C)C1=CC=C(N)C=C1,-,R945204,M12541,-,-,4-t-butyl-aniline,Koerner,charochkina,A5793,-,-,-,4.95,Log unit,25,?C,Nc1ccc(cc1)C(C)(C)C,10
CCC(C)N(C)C1=CC=CC=C1,-,R945205,M1107056,-,-,N-s-butyl-N-methylaniline,Koerner,charochkina,A5793,-,-,-,6.03,Log unit,25,?C,N(c1ccccc1)(C)C(C)CC,4
CN(C1=CC=CC=C1)C(C)(C)C,-,R945206,M1107057,-,-,N-t-butyl-N-methylaniline,Koerner,charochkina,A5793,-,-,-,7.39,Log unit,25,?C,N(c1ccccc1)(C)C(C)(C)C,4
CC1=CC=CC=C1NC(C)(C)C,-,R945207,M1107058,-,-,N-t-butyl-2-methylaniline,Koerner,charochkina,A5793,-,-,-,6.49,Log unit,25,?C,N(c1ccccc1C)C(C)(C)C,4
NC1=CC=CC=C1Cl,-,R945208,M213,-,-,2-CHLORO-ANILINE,Koerner,charochkina,A5793,-,-,-,2.64,Log unit,25,?C,Nc1c(Cl)cccc1,7
NC1=CC(Cl)=CC=C1,-,R945209,M8696,-,-,3-CHLORO-ANILINE,Koerner,charochkina,A5793,-,-,-,3.635,Log unit,25,?C,Nc1cc(Cl)ccc1,7
NC1=CC=C(Cl)C=C1,-,R945210,M9410,-,-,4-CHLORO-ANILINE,Koerner,charochkina,A5793,-,-,-,4.07,Log unit,25,?C,Nc1ccc(Cl)cc1,5
CN(C)C1=CC(Cl)=CC=C1,-,R945211,M77890,-,-,"3-Chloro-N,N-dimethylaniline",Koerner,charochkina,A5793,-,-,-,3.837,Log unit,25,?C,N(c1cc(Cl)ccc1)(C)C,7
CN(C)C1=CC=C(Cl)C=C1,-,R945212,M23361,-,-,"4-Chloro-N,N-dimethylaniline",Koerner,charochkina,A5793,-,-,-,4.395,Log unit,25,?C,N(c1ccc(Cl)cc1)(C)C,5
NC1=C(C=C(Cl)C=C1N(=O)=O)N(=O)=O,-,R945213,M1456,-,-,"4-chloro-2,6-dinitroaniline",Koerner,charochkina,A5793,-,-,-,-6.12,Log unit,25,?C,Nc1c(cc(Cl)cc1N(=O)=O)N(=O)=O,5
NC1=CC=C(F)C(Cl)=C1,-,R945214,M20216,-,-,3-CHLORO-4-FLUOROANILINE,Koerner,charochkina,A5793,-,-,-,3.66,Log unit,25,?C,Nc1cc(Cl)c(F)cc1,5
COC1=CC=C(Cl)C=C1N,-,R945215,M65173,-,-,5-Chloro-2-methoxyaniline,Koerner,charochkina,A5793,-,-,-,3.56,Log unit,25,?C,Nc1cc(Cl)ccc1OC,9
CC1=CC(Cl)=CC=C1N,-,R945216,M1730,-,-,4-Chloro-2-methylaniline,Koerner,charochkina,A5793,-,-,-,3.848,Log unit,25,?C,Nc1ccc(Cl)cc1C,5
NC1=CC=C(C=C1Cl)N(=O)=O,-,R945217,M6316,-,-,2-Chloro-4-nitroaniline,Koerner,charochkina,A5793,-,-,-,-0.94,Log unit,25,?C,N(=O)(=O)c1cc(Cl)c(cc1)N,5
NC1=CC(=CC=C1Cl)N(=O)=O,-,R945218,M5932,-,-,2-chloro-5-nitroaniline,Koerner,charochkina,A5793,-,-,-,0.64,Log unit,25,?C,N(=O)(=O)c1ccc(Cl)c(c1)N,5
NC1=C(C=CC=C1Cl)N(=O)=O,-,R945219,M67700,-,-,2-Chloro-6-nitroaniline,Koerner,charochkina,A5793,-,-,-,-2.365,Log unit,25,?C,Nc1c(Cl)cccc1N(=O)=O,6
NC1=CC=C(C(Cl)=C1)N(=O)=O,-,R945220,M1107059,-,-,3-chloro-4-nitroaniline,Koerner,charochkina,A5793,-,-,-,0.26,Log unit,25,?C,Nc1cc(Cl)c(cc1)N(=O)=O,5
NC1=C(C(Cl)=C(C=C1N(=O)=O)N(=O)=O)N(=O)=O,-,R945221,M1107060,-,-,"3-chloro-2,4,6-trinitroaniline",Koerner,charochkina,A5793,-,-,-,-9.7,Log unit,25,?C,N(=O)(=O)c1cc(c(Cl)c(c1N)N(=O)=O)N(=O)=O,5
COC1=CC(Cl)=CC(N)=C1,-,R945222,M80088,-,-,3-chloro-5-methoxy-aniline,Koerner,charochkina,A5793,-,-,-,3.1,Log unit,25,?C,Nc1cc(Cl)cc(c1)OC,5
CNC1=CC=C(Cl)C=C1,-,R945223,M24093,-,-,4-chloro-n-methyl-aniline,Koerner,charochkina,A5793,-,-,-,3.9,Log unit,25,?C,N(c1ccc(Cl)cc1)C,5
CC1=CC=C(N)C=C1Cl,-,R945224,M9956,-,-,3-chloro-4-methyl-aniline,Koerner,charochkina,A5793,-,-,-,4.05,Log unit,25,?C,Nc1cc(Cl)c(cc1)C,5
C=CCNCC=C,-,R945025,M2392,-,-,1-allylaminoprop-2-ene,Koerner,charochkina,A5793,-,-,-,9.29,Log unit,25,?C,N(CC=C)CC=C,0
NCC=C,-,R945026,M12013,-,-,1-amino-prop-2-ene,Koerner,charochkina,A5793,-,-,-,9.51,Log unit,25,?C,NCC=C,0
CC(O)CN(CC=C)CC(C)O,-,R945027,M1107007,-,-,1-(bis-2-hydroxypropyl)aminoprop-2-ene,Koerner,charochkina,A5793,-,-,-,8.2,Log unit,25,?C,N(CC(O)C)(CC=C)CC(O)C,4
C=CCN(CC=C)CC=C,-,R945028,M18424,-,-,1-diallylaminoprop-2-ene,Koerner,charochkina,A5793,-,-,-,8.31,Log unit,25,?C,N(CC=C)(CC=C)CC=C,3
CN(C)CC=C,-,R945029,M70774,-,-,1-dimethylaminoprop-2-ene,Koerner,charochkina,A5793,-,-,-,8.64,Log unit,25,?C,N(C)(C)CC=C,0
CNCC=C,-,R945030,M22862,-,-,1-methylaminoprop-2-ene,Koerner,charochkina,A5793,-,-,-,10.11,Log unit,25,?C,N(C)CC=C,0
CN(C)CCCCC(C)=O,-,R945031,M1107008,-,-,1-acetyl-4-dimethylaminobutane,Koerner,charochkina,A5793,-,-,-,9.62,Log unit,25,?C,N(CCCCC(=O)C)(C)C,7
CCCCN,-,R945032,M3999,-,-,1-AMINO-BUTANE,Koerner,charochkina,A5793,-,-,-,10.7485,Log unit,25,?C,NCCCC,0
CCC(C)N,-,R945033,M775,-,-,2-Aminobutane,Koerner,charochkina,A5793,-,-,-,10.56,Log unit,25,?C,NC(C)CC,0
CCN(CC)CCCCN,-,R945034,M82973,-,-,1-amino-4-diethylaminobutane,Koerner,charochkina,A5793,-,-,-,10.3,Log unit,25,?C,NCCCCN(CC)CC,0
NCCCCO,-,R945035,M845,-,-,1-amino-4-hydroxybutane,Koerner,charochkina,A5793,-,-,-,10.35,Log unit,25,?C,NCCCCO,5
CCC(N)CO,-,R945036,M18166,-,-,2-Amino-1-hydroxybutane,Koerner,charochkina,A5793,-,-,-,9.535,Log unit,25,?C,NC(CO)CC,3
CCC(N)(CO)OC,-,R945037,M1107009,-,-,2-amino-1-hydroxy-2-hydroxymethylbutane,Koerner,charochkina,A5793,-,-,-,8.8,Log unit,25,?C,NC(CO)(OC)CC,5
CC(=NO)C(C)(C)N,-,R945038,M1107010,-,-,2-amino-3-hydroxyimino-2-methylbutane,Koerner,charochkina,A5793,-,-,-,9.12,Log unit,25,?C,NC(C(=NO)C)(C)C,5
CCC(C)CN,-,R945039,M11748,-,-,1-Amino-2-methylbutane,Koerner,charochkina,A5793,-,-,-,10.64,Log unit,25,?C,NCC(C)CC,0
CCCCCN,-,R945040,M2158,-,-,1-Amino-3-methylbutane,Koerner,charochkina,A5793,-,-,-,10.655,Log unit,25,?C,NCCCCC,0
CCC(C)(C)N,-,R945041,M3134,-,-,2-amino-2-methylbutane,Koerner,charochkina,A5793,-,-,-,10.785,Log unit,25,?C,NC(C)(C)CC,0
NCCCC(Cl)(Cl)Cl,-,R945042,M1107011,-,-,"1-amino-4,4,4-trichlorobutane",Koerner,charochkina,A5793,-,-,-,9.93,Log unit,25,?C,NCCCC(Cl)(Cl)Cl,7
CCCCN(CCCl)CCCl,-,R945043,M39479,-,-,1-bis(2-chloroethyl)aminobutane,Koerner,charochkina,A5793,-,-,-,6.78,Log unit,25,?C,N(CCCl)(CCCl)CCCC,3
NCC(Cl)=C(Cl)Cl,-,R945044,M1107012,-,-,"1-amino-2,3,3-trichloro-prop-2-ene",Koerner,charochkina,A5793,-,-,-,6.72,Log unit,25,?C,NCC(=C(Cl)Cl)Cl,6
CCCCN(CC(C)O)CC(C)O,-,R945045,M1107013,-,-,1-(bis-2-hydroxypropyl)aminobutane,Koerner,charochkina,A5793,-,-,-,9.3,Log unit,25,?C,N(CC(O)C)(CCCC)CC(O)C,4
CCCCNCCCC,-,R945046,M5214,-,-,1-butylaminobutane,Koerner,charochkina,A5793,-,-,-,11.32,Log unit,25,?C,N(CCCC)CCCC,0
CCC(C)NC(C)CC,-,R945047,M22819,-,-,2-s-butylaminobutane,Koerner,charochkina,A5793,-,-,-,11.01,Log unit,25,?C,N(C(C)CC)C(C)CC,0
CCN(CC)CCCCC#N,-,R945048,M1107014,-,-,1-cyano-4-diethylaminobutane,Koerner,charochkina,A5793,-,-,-,10.08,Log unit,25,?C,N(CCCCC#N)(CC)CC,6
CC(CC(C#N)(C1=CC=CC=C1)C1=CC=CC=C1)N(C)C,-,R945049,M65582,-,-,"1-cyano-3-dimethylamino-1,1-diphenylbutane",Koerner,charochkina,A5793,-,-,-,8.26,Log unit,25,?C,N(C(CC(c1ccccc1)(c1ccccc1)C#N)C)(C)C,15
CC([NH3+])CCN,-,R945050,M22034,-,-,"1,3-Diaminobutane",Koerner,charochkina,A5793,-,-,-,8.72,Log unit,25,?C,NCCC([NH3+])C,0
NCCCCN,-,R945051,M18732,-,-,"1,4-diaminobutane",Koerner,charochkina,A5793,-,-,-,10.5,Log unit,25,?C,NCCCCN,0
NCCCC[NH3+],-,R945052,M18732,-,-,"1,4-diaminobutane",Koerner,charochkina,A5793,-,-,-,9.65,Log unit,25,?C,NCCCC[NH3+],0
CC(N)C(C)N,-,R945053,M1107015,-,-,"2,3-diaminobutane",Koerner,charochkina,A5793,-,-,-,10,Log unit,25,?C,NC(C)C(N)C,0
CC(N)C(C)[NH3+],-,R945054,M1107015,-,-,"2,3-diaminobutane",Koerner,charochkina,A5793,-,-,-,6.92,Log unit,25,?C,NC(C([NH3+])C)C,4
CC(C)(N)C(C)(C)N,-,R945055,M1107016,-,-,"2,3-diamino-2,3-dimethylbutane",Koerner,charochkina,A5793,-,-,-,9.87,Log unit,25,?C,NC(C)(C)C(N)(C)C,0
CC(C)(N)C(C)(C)[NH3+],-,R945056,M1107016,-,-,"2,3-diamino-2,3-dimethylbutane",Koerner,charochkina,A5793,-,-,-,6.9,Log unit,25,?C,NC(C([NH3+])(C)C)(C)C,5
CCC([NH3+])(CC)CN,-,R945057,M1107017,-,-,"1,2-diamino-2-ethylbutane",Koerner,charochkina,A5793,-,-,-,6.62,Log unit,25,?C,NCC([NH3+])(CC)CC,0
CCCCN(CCCC)CCCC,-,R945058,M4483,-,-,1-dibutylaminobutane,Koerner,charochkina,A5793,-,-,-,10.485,Log unit,25,?C,N(CCCC)(CCCC)CCCC,0
CCCCN(C)C,-,R945059,M1999,-,-,1-dimethylaminobutane,Koerner,charochkina,A5793,-,-,-,10.19,Log unit,25,?C,N(C)(C)CCCC,0
CCC(C)N(C)C,-,R945060,M1107018,-,-,2-dimethylaminobutane,Koerner,charochkina,A5793,-,-,-,10.57,Log unit,25,?C,N(C)(C)C(C)CC,0
CC(CC(C1=CC=CC=C1)C1=CC=CC=C1)N(C)C,-,R945061,M35507,-,-,"2-dimethylamino-4,4-diphenylbutane",Koerner,charochkina,A5793,-,-,-,9.43,Log unit,25,?C,N(C(CC(c1ccccc1)c1ccccc1)C)(C)C,13
CCC(=O)C(CC(C)N(C)C)(C1=CC=CC=C1)C1=CC=CC=C1,-,R945062,M11346,-,-,"2-dimethylamino-4-ethylcarbonyl-4,4-diphenylbutane",Koerner,charochkina,A5793,-,-,-,9.53,Log unit,25,?C,N(C(CC(c1ccccc1)(c1ccccc1)C(=O)CC)C)(C)C,17
CC(C)CCNCCC(C)C,-,R945063,M21542,-,-,1-isoamylamino-3-methylbutane,Koerner,charochkina,A5793,-,-,-,10.93,Log unit,25,?C,N(CCC(C)C)CCC(C)C,0
CC(C=C(C1=CC=CC=C1)C1=CC=CC=C1)N(C)C,-,R945064,M124193,-,-,"3-dimethylamino-1,1-diphenylbut-1-ene",Koerner,charochkina,A5793,-,-,-,9.21,Log unit,25,?C,N(C(C=C(c1ccccc1)c1ccccc1)C)(C)C,13
CCCCCN,-,R945065,M2158,-,-,1-Aminopentane,Koerner,charochkina,A5793,-,-,-,10.635,Log unit,25,?C,NCCCCC,0
CCC(N)CC,-,R945066,M8755,-,-,3-AMINOPENTANE,Koerner,charochkina,A5793,-,-,-,10.42,Log unit,25,?C,NC(CC)CC,0
NCCCCCBr,-,R945067,M1107019,-,-,1-amino-5-bromopentane,Koerner,charochkina,A5793,-,-,-,9.62,Log unit,25,?C,NCCCCCBr,6
CCN(CC)CCCC(C)[NH3+],-,R945068,M19538,-,-,2-Amino-5-diethylaminopentane,Koerner,charochkina,A5793,-,-,-,9.55,Log unit,25,?C,N(CCCC([NH3+])C)(CC)CC,6
CCCC(N)C(C)C,-,R945069,M1107020,-,-,"3-Amino-2,4-dimethylpentane",Koerner,charochkina,A5793,-,-,-,10.23,Log unit,25,?C,NC(CCC)C(C)C,0
CCC(N)(CC)CC,-,R945070,M1107021,-,-,"3-Amino-2,4-dimethylpentane",Koerner,charochkina,A5793,-,-,-,10.59,Log unit,25,?C,NC(CC)(CC)CC,0
NCCCCCO,-,R945071,M6391,-,-,1-amino-5-hydroxypentane,Koerner,charochkina,A5793,-,-,-,10.46,Log unit,25,?C,NCCCCCO,6
CCC(C)(N)CC,-,R945072,M1107022,-,-,3-amino-3-methylpentane,Koerner,charochkina,A5793,-,-,-,10.63,Log unit,25,?C,NC(C)(CC)CC,0
CC(C)(C)CC(C)(C)N,-,R945073,M9156,-,-,"2-Amino-2,4,4-trimethylpentane",Koerner,charochkina,A5793,-,-,-,10.785,Log unit,25,?C,NC(C)(C)CC(C)(C)C,0
NCCCCC(Cl)(Cl)Cl,-,R945074,M1107023,-,-,"1-amino-5,5,5-trichloro-pentane",Koerner,charochkina,A5793,-,-,-,10.12,Log unit,25,?C,NCCCCC(Cl)(Cl)Cl,8
CCCCCNCCCCC,-,R945075,M26193,-,-,1-amylaminopentane,Koerner,charochkina,A5793,-,-,-,11.16,Log unit,25,?C,N(CCCCC)CCCCC,0
CCCCCN(CC(C)O)CC(C)O,-,R945076,M1107024,-,-,1-(bis-2-hydroxypropyl)aminopentane,Koerner,charochkina,A5793,-,-,-,9,Log unit,25,?C,N(CC(O)C)(CC(O)C)CCCCC,4
CCN(CC)CCCCCC#N,-,R945077,M1107025,-,-,1-cyano-5-diethylaminopentane,Koerner,charochkina,A5793,-,-,-,10.46,Log unit,25,?C,N(CCCCCC#N)(CC)CC,7
NCCCCCN,-,R945078,M20570,-,-,"1,5-diamino-pentane",Koerner,charochkina,A5793,-,-,-,9.95,Log unit,25,?C,NCCCCCN,0
NCCCCC[NH3+],-,R945079,M20570,-,-,"1,5-diamino-pentane",Koerner,charochkina,A5793,-,-,-,9.43,Log unit,25,?C,NCCCCC[NH3+],0
CC(C)C(C(C)C)N(C)C,-,R945080,M90223,-,-,"2,4-dimethyl-3-dimethylaminopentane",Koerner,charochkina,A5793,-,-,-,10.01,Log unit,25,?C,N(C)(C)C(C(C)C)C(C)C,0
CCCCCCN,-,R945081,M879,-,-,1-Aminohexane,Koerner,charochkina,A5793,-,-,-,10.6,Log unit,25,?C,NCCCCCC,0
NCCCCCCBr,-,R945082,M1107026,-,-,1-amino-6-bromohexane,Koerner,charochkina,A5793,-,-,-,10.6,Log unit,25,?C,NCCCCCCBr,7
NCCCCCCO,-,R945083,M10678,-,-,1-amino-6-hydroxyhexane,Koerner,charochkina,A5793,-,-,-,10.6,Log unit,25,?C,NCCCCCCO,7
CCCCNCCCCCCNCCCC,-,R945084,M29742,-,-,"1,6-bis-n-butylaminohexane",Koerner,charochkina,A5793,-,-,-,11,Log unit,25,?C,N(CCCC)CCCCCCNCCCC,0
CC(C)(C)NCCCCCCNC(C)(C)C,-,R945085,M1107027,-,-,"1,6-bis-t-butylaminohexane",Koerner,charochkina,A5793,-,-,-,10.7,Log unit,25,?C,N(C(C)(C)C)CCCCCCNC(C)(C)C,0
CCCCCCN(CC(C)O)CC(C)O,-,R945086,M1107028,-,-,1-(bis-2-hydroxypropyl)aminohexane,Koerner,charochkina,A5793,-,-,-,8.5,Log unit,25,?C,N(CC(O)C)(CC(O)C)CCCCCC,4
CC(C)NCCCCCCNC(C)C,-,R945087,M1107029,-,-,"1,6-bisisopropylaminohexane",Koerner,charochkina,A5793,-,-,-,11,Log unit,25,?C,N(C(C)C)CCCCCCNC(C)C,0
NCCCCCCN,-,R945088,M19186,-,-,"1,6-Diaminohexane",Koerner,charochkina,A5793,-,-,-,10.634,Log unit,25,?C,NCCCCCCN,0
NCCCCCC[NH3+],-,R945089,M19186,-,-,"1,6-Diaminohexane",Koerner,charochkina,A5793,-,-,-,10.1,Log unit,25,?C,NCCCCCC[NH3+],7
CCCCCCNCCCCCC,-,R945090,M8909,-,-,1-hexylaminohexane,Koerner,charochkina,A5793,-,-,-,11.01,Log unit,25,?C,N(CCCCCC)CCCCCC,0
CCCCCCCN,-,R945091,M12359,-,-,1-Aminoheptane,Koerner,charochkina,A5793,-,-,-,10.66,Log unit,25,?C,NCCCCCCC,0
CCCCCC(C)N,-,R945092,M19174,-,-,2-AMINOHEPTANE,Koerner,charochkina,A5793,-,-,-,10.735,Log unit,25,?C,NC(C)CCCCC,0
CCCCCC(C)(C)N,-,R945093,M1107030,-,-,2-amino-2-methylheptane,Koerner,charochkina,A5793,-,-,-,10.635,Log unit,25,?C,NC(C)(C)CCCCC,0
CC(C)CCCC(C)N,-,R945094,M21536,-,-,2-Amino-6-methylheptane,Koerner,charochkina,A5793,-,-,-,10.28,Log unit,25,?C,NC(C)CCCC(C)C,0
CCCCCC(C)NC,-,R945095,M21458,-,-,2-Methylaminoheptane,Koerner,charochkina,A5793,-,-,-,10.905,Log unit,25,?C,N(C)C(C)CCCCC,0
CCCCCCCCN,-,R945096,M4552,-,-,1-Aminooctane,Koerner,charochkina,A5793,-,-,-,10.61,Log unit,25,?C,NCCCCCCCC,0
CCCCCCC(C)N,-,R945097,M3688,-,-,2-Aminooctane,Koerner,charochkina,A5793,-,-,-,10.49,Log unit,25,?C,NC(C)CCCCCC,0
CC(=[NH+]O)C(C)(C)CCCCCN,-,R945098,M1107031,-,-,"1-amino-7-hydroxyimino-6,6-dimethyloctane",Koerner,charochkina,A5793,-,-,-,9.12,Log unit,25,?C,NCCCCCC(C(=[N+]O)C)(C)C,12
CCCCCC(O)C(C)(C)N,-,R945099,M1107032,-,-,2-amino-3-hydroxy-2-methyl-octane,Koerner,charochkina,A5793,-,-,-,9.85,Log unit,25,?C,NC(C(O)CCCCC)(C)C,3
CCCCCCCCN(CC(C)O)CC(C)O,-,R945100,M83370,-,-,1-(bis-2-hydroxypropyl)aminooctane,Koerner,charochkina,A5793,-,-,-,8.3,Log unit,25,?C,N(CC(O)C)(CC(O)C)CCCCCCCC,4
NCCCCCCCCN,-,R945101,M20287,-,-,"1,8-diaminoocatane",Koerner,charochkina,A5793,-,-,-,10.7,Log unit,25,?C,NCCCCCCCCN,0
NCCCCCCCC[NH3+],-,R945102,M20287,-,-,"1,8-diaminoocatane",Koerner,charochkina,A5793,-,-,-,10.4,Log unit,25,?C,NCCCCCCCC[NH3+],9
CC(=NO)C(C)(C)C(N)C(N)C(C)(C)C(C)=NO,-,R945103,M1107033,-,-,"4,5-diamino-2,7-bishydroxyimino-3,3,6,6-tetramethyloctane",Koerner,charochkina,A5793,-,-,-,8.04,Log unit,25,?C,NC(C(C(=NO)C)(C)C)C(N)C(C(=NO)C)(C)C,8
CCCCCCCCNCCCCCCCC,-,R945104,M24622,-,-,1-octylaminooctane,Koerner,charochkina,A5793,-,-,-,11.01,Log unit,25,?C,N(CCCCCCCC)CCCCCCCC,0
CCCCCCCCCN,-,R945105,M2636,-,-,1-Aminononane,Koerner,charochkina,A5793,-,-,-,10.64,Log unit,25,?C,NCCCCCCCCC,0
CCCCCCCCCCN,-,R945106,M6778,-,-,1-amino-decane,Koerner,charochkina,A5793,-,-,-,10.64,Log unit,25,?C,NCCCCCCCCCC,0
CCCCCCCCCCN(CC(C)O)CC(C)O,-,R945107,M94565,-,-,1-(bis-2-hydroxypropyl)aminodecane,Koerner,charochkina,A5793,-,-,-,7.6,Log unit,25,?C,N(CC(O)C)(CC(O)C)CCCCCCCCCC,4
CCCCCCCCCCCN,-,R945108,M9087,-,-,1-Aminoundecane,Koerner,charochkina,A5793,-,-,-,10.63,Log unit,25,?C,NCCCCCCCCCCC,0
CCCCCCCCCCCCN,-,R945109,M5216,-,-,1-amino-dodecane,Koerner,charochkina,A5793,-,-,-,10.63,Log unit,25,?C,NCCCCCCCCCCCC,0
CCCCCCCCCCCCN(CC(C)O)CC(C)O,-,R945110,M69701,-,-,1-(bis-2-hydroxypropyl)aminododecane,Koerner,charochkina,A5793,-,-,-,6.2,Log unit,25,?C,N(CC(O)C)(CC(O)C)CCCCCCCCCCCC,4
CCCCCCCCCCCCNCCCCCCCCCCCC,-,R945111,M72201,-,-,1-dodecylaminododecane,Koerner,charochkina,A5793,-,-,-,11,Log unit,25,?C,N(CCCCCCCCCCCC)CCCCCCCCCCCC,0
CCCCCCCCCCCCCN,-,R945112,M34,-,-,1-Aminotridecane,Koerner,charochkina,A5793,-,-,-,10.63,Log unit,25,?C,NCCCCCCCCCCCCC,0
CCCCCCCCCCCCCNCCCCCCCCCCCCC,-,R945113,M30745,-,-,1-tridecylaminotridecane,Koerner,charochkina,A5793,-,-,-,11,Log unit,25,?C,N(CCCCCCCCCCCCC)CCCCCCCCCCCCC,0
CCCCCCCCCCCCCCN,-,R945114,M25842,-,-,1-Aminotetradecane,Koerner,charochkina,A5793,-,-,-,10.62,Log unit,25,?C,NCCCCCCCCCCCCCC,0
CCCCCCCCCCCCCCN(CC(C)O)CC(C)O,-,R945115,M91177,-,-,1-(bis-2-hydroxypropyl)aminotetradecane,Koerner,charochkina,A5793,-,-,-,5.6,Log unit,25,?C,N(CC(O)C)(CC(O)C)CCCCCCCCCCCCCC,4
CCCCCCCCCCCCCCCN,-,R945116,M27109,-,-,1-amino-pentadecane,Koerner,charochkina,A5793,-,-,-,10.61,Log unit,25,?C,NCCCCCCCCCCCCCCC,0
CCCCCCCCCCCCCCCNCCCCCCCCCCCCCCC,-,R945117,M97092,-,-,1-pentadecylaminopentadecane,Koerner,charochkina,A5793,-,-,-,11,Log unit,25,?C,N(CCCCCCCCCCCCCCC)CCCCCCCCCCCCCCC,0
CCCCCCCCCCCCCCCCN,-,R945118,M19618,-,-,1-Aminohexadecane,Koerner,charochkina,A5793,-,-,-,10.61,Log unit,25,?C,NCCCCCCCCCCCCCCCC,0
CCCCCCCCCCCCCCCCN(CC(C)O)CC(C)O,-,R945119,M70978,-,-,1-(bis-2-hydroxypropyl)aminohexadecane,Koerner,charochkina,A5793,-,-,-,4.8,Log unit,25,?C,N(CC(O)C)(CC(O)C)CCCCCCCCCCCCCCCC,4
CCCCCCCCCCCCCCCCCN,-,R945120,M29081,-,-,1-Aminoheptadecane,Koerner,charochkina,A5793,-,-,-,10.6,Log unit,25,?C,NCCCCCCCCCCCCCCCCC,0
CCCCCCCCCCCCCCCCCCN(CC(C)O)CC(C)O,-,R945121,M83244,-,-,1-(bis-2-hydroxypropyl)aminooctadecane,Koerner,charochkina,A5793,-,-,-,4.6,Log unit,25,?C,N(CC(O)C)(CC(O)C)CCCCCCCCCCCCCCCCCC,4
CCCCCCCCCCCCCCCCCCNCCCCCCCCCCCCCCCCCC,-,R945122,M65434,-,-,1-octadecylaminooctadecane,Koerner,charochkina,A5793,-,-,-,11,Log unit,25,?C,N(CCCCCCCCCCCCCCCCCC)CCCCCCCCCCCCCCCCCC,0
CCCCCCCCCCCCCCCCCCN,-,R945123,M19195,-,-,1-amino-octadecane,Koerner,charochkina,A5793,-,-,-,10.6,Log unit,25,?C,NCCCCCCCCCCCCCCCCCC,0
CCCCCCCCCCCCCCCCCCCCCCN,-,R945124,M115022,-,-,1-amino-docosane,Koerner,charochkina,A5793,-,-,-,10.6,Log unit,25,?C,NCCCCCCCCCCCCCCCCCCCCCC,0
CN(C)CCO,-,R944925,M18640,-,-,1-dimethylamino-2-hydroxyethane,Koerner,charochkina,A5793,-,-,-,9.245,Log unit,25,?C,N(CCO)(C)C,3
CNCCOC(C1=CC=CC=C1)C1=CC=CC=C1,-,R944926,M40294,-,-,1-diphenylmethoxy-2-methylaminoethane,Koerner,charochkina,A5793,-,-,-,9,Log unit,25,?C,N(CCOC(c1ccccc1)c1ccccc1)C,8
CCNCC,-,R944927,M3990,-,-,ethylaminoethane,Koerner,charochkina,A5793,-,-,-,11.1,Log unit,25,?C,N(CC)CC,0
CCN(C)CC,-,R944928,M3374,-,-,N-ethyl-N-methylaminoethane,Koerner,charochkina,A5793,-,-,-,10.46,Log unit,25,?C,N(C)(CC)CC,0
OCCN(CCO)CCO,-,R944929,M3468,-,-,"1-hydroxy-2-(2,2'-bishydroxyethyl)aminoethane",Koerner,charochkina,A5793,-,-,-,7.66655,Log unit,25,?C,N(CCO)(CCO)CCO,3
OCCNCCO,-,R944930,M13983,-,-,1-hydroxy-2-(2-hydroxyethyl)aminoethane,Koerner,charochkina,A5793,-,-,-,8.776,Log unit,25,?C,N(CCO)CCO,3
CN(CCO)CCO,-,R944931,M1590,-,-,1-hydroxy-2-(2-hydroxyethylmethyl)aminoethane,Koerner,charochkina,A5793,-,-,-,8.545,Log unit,25,?C,N(CCO)(CCO)C,3
NCCOP([O-])([O-])=O,-,R944932,M24436,-,-,2-Aminoethyl dihydrogen phosphate,Koerner,charochkina,A5793,-,-,-,10.33,Log unit,25,?C,NCCOP(=O)([O-])[O-],7
[NH3+]CCOP(O)([O-])=O,-,R944933,M24436,-,-,2-Aminoethyl dihydrogen phosphate,Koerner,charochkina,A5793,-,-,-,5.8,Log unit,25,?C,OP(=O)([O-])OCC[NH3+],2
NCCOS([O-])(=O)=O,-,R944934,M24016,-,-,2-Aminoethyl hydrogen sulphate,Koerner,charochkina,A5793,-,-,-,9.4,Log unit,25,?C,NCCOS(=O)(=O)[O-],7
NCCSCCO,-,R944935,M81525,-,-,2-amino-2'-hydroxy-diethyl sulfide,Koerner,charochkina,A5793,-,-,-,9.41,Log unit,25,?C,NCCSCCO,6
NCCSSCCN,-,R944936,M64799,-,-,bis(2-aminoethyl)disulphide,Koerner,charochkina,A5793,-,-,-,8.86,Log unit,25,?C,NCCSSCCN,4
CN(C)CCSCCN(C)C,-,R944937,M1106985,-,-,bisdimethylaminoethyl sulphide,Koerner,charochkina,A5793,-,-,-,8.9,Log unit,25,?C,N(CCSCCN(C)C)(C)C,3
CN(C)CCSCC[NH+](C)C,-,R944938,M1106985,-,-,bisdimethylaminoethyl sulphide,Koerner,charochkina,A5793,-,-,-,8.3,Log unit,25,?C,[NH+](CCSCCN(C)C)(C)C,3
NCCSSCCN,-,R944939,M64799,-,-,"2,2'-diaminodiethyl disulphide",Koerner,charochkina,A5793,-,-,-,9.28,Log unit,25,?C,NCCSSCCN,7
NCCSSCC[NH3+],-,R944940,M64799,-,-,"2,2'-diaminodiethyl disulphide",Koerner,charochkina,A5793,-,-,-,9.1,Log unit,25,?C,NCCSSCC[NH3+],7
NCCSCCN,-,R944941,M67986,-,-,"2,2'-diaminodiethyl sulphide",Koerner,charochkina,A5793,-,-,-,9.34,Log unit,25,?C,NCCSCCN,3
NCCSCC[NH3+],-,R944942,M67986,-,-,"2,2'-diaminodiethyl sulphide",Koerner,charochkina,A5793,-,-,-,9.14,Log unit,25,?C,NCCSCC[NH3+],6