Smiles,CASRN,Record ID,Molecule ID,External ID,N,Name,Introducer,Modifer,Article ID,PUBMED ID,PAGE,TABLE,pKa,pKa Unit,Temperature,Temperature Unit,Ionizable center smiles,IC group
ON(=O)=O,-,R936458,M32154,-,-,NITRIC ACID,Koerner,charochkina,A5793,-,-,-,-1.3,Log unit,25,?C,ON(=O)=O,{oh=0}
CC(C)=NO,-,R936459,M8888,-,-,Acetoxime,Koerner,charochkina,A5793,-,-,-,12.42,Log unit,25,?C,ON=C(C)C,{oh=0}
CC(=NO)N=O,-,R936460,M1018691,-,-,1-nitrosoethanaloxime,Koerner,charochkina,A5793,-,-,-,5.8,Log unit,25,?C,ON=C(N=O)C,{oh=4}
CCC(C)=NO,-,R936461,M12288,-,-,Methylethylketoxime,Koerner,charochkina,A5793,-,-,-,12.45,Log unit,25,?C,ON=C(C)CC,{oh=0}
CCC(CC)=NO,-,R936462,M22723,-,-,diethylketoxime,Koerner,charochkina,A5793,-,-,-,12.6,Log unit,25,?C,ON=C(CC)CC,{oh=0}
ON(S([O-])(=O)=O)S([O-])(=O)=O,-,R936463,M141778,-,-,"182 Hydroxylamine-N,N-disulphonic acid",Koerner,charochkina,A5793,-,-,-,11.85,Log unit,25,?C,ON(S(=O)(=O)[O-])S(=O)(=O)[O-],{oh=0}
ONOS(=O)=O,-,R936464,M1018692,-,-,182 Hydroxylamine-N-sulphonic acid,Koerner,charochkina,A5793,-,-,-,12.5,Log unit,25,?C,ONOS(=O)=O,{oh=0}
OCC(Cl)(Cl)Cl,-,R936465,M5769,-,-,"2,2,2-trichloro-ethanol",Koerner,charochkina,A5793,-,-,-,12.245,Log unit,25,?C,OCC(Cl)(Cl)Cl,{oh=5}
OCC(F)(F)F,-,R936466,M9740,-,-,"2,2,2-trifluoro-ethanol",Koerner,charochkina,A5793,-,-,-,12.585,Log unit,25,?C,OCC(F)(F)F,{oh=5}
OCC(Cl)Cl,-,R936467,M4321,-,-,"2,2-Dichloro-ethanol",Koerner,charochkina,A5793,-,-,-,12.89,Log unit,25,?C,OCC(Cl)Cl,{oh=4}
OCCCl,-,R936468,M10767,-,-,2-CHLORO-ETHANOL,Koerner,charochkina,A5793,-,-,-,14.31,Log unit,25,?C,OCCCl,{oh=3}
OCC=C,-,R936469,M13317,-,-,2-propen-1-ol (allyl alcohol),Koerner,charochkina,A5793,-,-,-,15.5,Log unit,25,?C,OCC=C,{oh=0}
CCCO,-,R936470,M682,-,-,1-Propanol,Koerner,charochkina,A5793,-,-,-,16.1,Log unit,25,?C,OCCC,{oh=0}
CC(C)O,-,R936471,M5547,-,-,2-Propanol,Koerner,charochkina,A5793,-,-,-,17.1,Log unit,25,?C,OC(C)C,{oh=0}
COCCO,-,R936472,M13096,-,-,2-methoxy-ethanol,Koerner,charochkina,A5793,-,-,-,14.8,Log unit,25,?C,OCCOC,{oh=0}
CC(C)OO,-,R936473,M27738,-,-,isopropyl-hydroperoxide,Koerner,charochkina,A5793,-,-,-,12.1,Log unit,25,?C,OOC(C)C,{oh=3}
CN(C)CC(O)C(F)(F)F,-,R936474,M1018693,-,-,"1-dimethylamino-3,3,3-trifluoro-2-propanol",Koerner,charochkina,A5793,-,-,-,12.56,Log unit,25,?C,OC(C(F)(F)F)CN(C)C,{oh=5}
OCC(F)(F)C(F)F,-,R936475,M15135,-,-,"2,2,3,3-Tetrafluoro-1-propanol",Koerner,charochkina,A5793,-,-,-,12.74,Log unit,25,?C,OCC(C(F)F)(F)F,{oh=7}
CCCCO,-,R936476,M6411,-,-,1-Butanol,Koerner,charochkina,A5793,-,-,-,16.1,Log unit,25,?C,OCCCC,{oh=0}
CCC(C)O,-,R936477,M1029,-,-,2-butanol,Koerner,charochkina,A5793,-,-,-,17.6,Log unit,25,?C,OC(C)CC,{oh=0}
CC(C)(C)O,-,R936478,M2025,-,-,2-Methyl-2-propanol,Koerner,charochkina,A5793,-,-,-,19.2,Log unit,25,?C,OC(C)(C)C,{oh=0}
CC(C)(C)OO,-,R936479,M17422,-,-,TERT-BUTYL HYDROPEROXIDE,Koerner,charochkina,A5793,-,-,-,12.8,Log unit,25,?C,OOC(C)(C)C,{oh=0}
CCC(C)OO,-,R936480,M1034187,-,-,iso-butyl hydroperoxide,Koerner,charochkina,A5793,-,-,-,12.8,Log unit,25,?C,OOC(C)CC,{oh=0}
OC(C(F)(F)F)(C(F)(F)F)C(F)(F)F,-,R936481,M15146,-,-,"1,1,1,3,3,3-Hexafluoro-2-trifluoromethyl-2-propanol",Koerner,charochkina,A5793,-,-,-,5.4,Log unit,25,?C,OC(C(F)(F)F)(C(F)(F)F)C(F)(F)F,{oh=5}
CC(O)(C(F)(F)F)C(F)(F)F,-,R936482,M69631,-,-,"1,1,1,3,3,3-Hexafluoro-2-methyl-2-propanol",Koerner,charochkina,A5793,-,-,-,9.6,Log unit,25,?C,OC(C(F)(F)F)(C)C(F)(F)F,{oh=5}
OC(C(F)(F)F)(C(F)(F)F)C(F)(F)Cl,-,R936483,M1034188,-,-,"1-chloro-1,1,3,3,3-pentafluoro-2-trifluoromethyl-2-propanol",Koerner,charochkina,A5793,-,-,-,5.3,Log unit,25,?C,OC(C(Cl)(F)F)(C(F)(F)F)C(F)(F)F,{oh=5}
OC(C(F)(F)F)(C(F)(F)F)C(Cl)(Cl)Cl,-,R936484,M1034189,-,-,"1,1,1-trichloro-3,3,3-trifluoro-2-trifluoromethyl-2-propanol",Koerner,charochkina,A5793,-,-,-,5.1,Log unit,25,?C,OC(C(Cl)(Cl)Cl)(C(F)(F)F)C(F)(F)F,{oh=5}
OC(C(F)(F)F)(C(F)(F)F)C(F)(F)N(=O)=O,-,R936485,M1018694,-,-,"1,1,1,3,3-pentafluoro-3-nitro-2-trifluoromethyl-2-propanol",Koerner,charochkina,A5793,-,-,-,3.9,Log unit,25,?C,OC(C(N(=O)=O)(F)F)(C(F)(F)F)C(F)(F)F,{oh=7}
OC1=CC=CC=C1,-,R936486,M4660,-,-,Phenol,Koerner,charochkina,A5793,-,-,-,9.98,Log unit,25,?C,Oc1ccccc1,{oh=4}
CC1=CC=CC(O)=C1,-,R936487,M9841,-,-,m-cresol,Koerner,charochkina,A5793,-,-,-,10.094,Log unit,25,?C,Oc1cccc(c1)C,{oh=4}
CC1=CC=C(O)C=C1,-,R936488,M4734,-,-,p-cresol,Koerner,charochkina,A5793,-,-,-,10.268,Log unit,25,?C,Oc1ccc(cc1)C,{oh=7}
CC1=C(C)C=C(O)C=C1,-,R936489,M13431,-,-,"3,4-dimethyl-phenol",Koerner,charochkina,A5793,-,-,-,10.358,Log unit,25,?C,Oc1ccc(c(C)c1)C,{oh=7}
CC1=CC(O)=CC(C)=C1,-,R936490,M10784,-,-,"3,5-dimethyl-phenol",Koerner,charochkina,A5793,-,-,-,10.1965,Log unit,25,?C,Oc1cc(cc(c1)C)C,{oh=5}
CCC1=CC=CC(O)=C1,-,R936491,M3927,-,-,m-ethyl-phenol,Koerner,charochkina,A5793,-,-,-,10.0695,Log unit,25,?C,Oc1cccc(c1)CC,{oh=3}
CCC1=CC=C(O)C=C1,-,R936492,M4171,-,-,p-ethyl-phenol,Koerner,charochkina,A5793,-,-,-,10.195,Log unit,25,?C,Oc1ccc(cc1)CC,{oh=8}
CCC1=CC(O)=CC(C)=C1,-,R936493,M23362,-,-,3-methyl-5-ethyl-phenol,Koerner,charochkina,A5793,-,-,-,10.1,Log unit,25,?C,Oc1cc(cc(c1)CC)C,{oh=0}
OC1=CC2=C(CCC2)C=C1,-,R936494,M25202,-,-,indanol-4,Koerner,charochkina,A5793,-,-,-,10.28,Log unit,25,?C,Oc1ccc2CCCc2c1,{oh=9}
OC1=C2CCCCC2=CC=C1,-,R936495,M21298,-,-,tetralol-1,Koerner,charochkina,A5793,-,-,-,10.285,Log unit,25,?C,Oc1cccc2c1CCCC2,{oh=3}
OC1=CC2=C(CCCC2)C=C1,-,R936496,M11194,-,-,tetralol-2,Koerner,charochkina,A5793,-,-,-,10.44,Log unit,25,?C,Oc1ccc2CCCCc2c1,{oh=9}
OC1=CC(=CC=C1)C1=CC=CC=C1,-,R936497,M10945,-,-,m-hydroxy-biphenyl,Koerner,charochkina,A5793,-,-,-,9.635,Log unit,25,?C,Oc1cc(c2ccccc2)ccc1,{oh=10}
OC1=CC=C(C=C1)C1=CC=CC=C1,-,R936498,M13909,-,-,p-hydroxy-biphenyl,Koerner,charochkina,A5793,-,-,-,9.55,Log unit,25,?C,Oc1ccc(c2ccccc2)cc1,{oh=8}
OC1=CC2=CC=CC=C2C=C1,-,R936499,M5313,-,-,b-naphthol,Koerner,charochkina,A5793,-,-,-,9.77,Log unit,25,?C,Oc1cc2ccccc2cc1,{oh=6}
OC1=CC=CC=C1[O-],-,R936500,M13426,-,-,Pyrocatechine,Koerner,charochkina,A5793,-,-,-,11.8,Log unit,25,?C,Oc1ccccc1[O-],{oh=7}
OC1=CC=CC([O-])=C1,-,R936501,M3218,-,-,Resorcinol,Koerner,charochkina,A5793,-,-,-,11,Log unit,25,?C,Oc1cccc(c1)[O-],{oh=7}
OC1=CC=C([O-])C=C1,-,R936502,M9153,-,-,Hydroquinone,Koerner,charochkina,A5793,-,-,-,11.4,Log unit,25,?C,Oc1ccc(cc1)[O-],{oh=7}
CC1=C(O)C=CC([O-])=C1,-,R936503,M1500,-,-,Toluhydroquinone,Koerner,charochkina,A5793,-,-,-,11.6,Log unit,25,?C,Oc1ccc(cc1C)[O-],{oh=3}
CC1=C(C)C([O-])=C(C)C(C)=C1O,-,R936504,M10672,-,-,Durohydroquinone,Koerner,charochkina,A5793,-,-,-,12.5,Log unit,25,?C,Oc1c(c(c([O-])c(c1C)C)C)C,{oh=0}
OC1=C([O-])C=CC=C1[O-],-,R936505,M12514,-,-,pyrogallol,Koerner,charochkina,A5793,-,-,-,14,Log unit,25,?C,Oc1c(cccc1[O-])[O-],{oh=5}
OC1=CC(Cl)=C([O-])C(Cl)=C1,-,R936506,M118506,-,-,"2,6-Dichlorohydroquinone",Koerner,charochkina,A5793,-,-,-,10,Log unit,25,?C,Oc1cc(Cl)c([O-])c(c1)Cl,{oh=5}
OC1=CC(F)=CC=C1,-,R936507,M10413,-,-,m-fluoro-phenol,Koerner,charochkina,A5793,-,-,-,9.25,Log unit,25,?C,Oc1cc(F)ccc1,{oh=7}
OC1=CC=C(F)C=C1,-,R936508,M9737,-,-,p-fluoro-phenol,Koerner,charochkina,A5793,-,-,-,9.83,Log unit,25,?C,Oc1ccc(F)cc1,{oh=5}
OC1=CC(Cl)=CC=C1,-,R936509,M3973,-,-,m-chloro-phenol,Koerner,charochkina,A5793,-,-,-,9.1245,Log unit,25,?C,Oc1cc(Cl)ccc1,{oh=7}
OC1=CC=C(Cl)C=C1,-,R936510,M12688,-,-,p-chloro-phenol,Koerner,charochkina,A5793,-,-,-,9.365,Log unit,25,?C,Oc1ccc(Cl)cc1,{oh=5}
OC1=CC(Br)=CC=C1,-,R936511,M6891,-,-,m-bromo-phenol,Koerner,charochkina,A5793,-,-,-,9.0455,Log unit,25,?C,Oc1cc(Br)ccc1,{oh=7}
OC1=CC=C(Br)C=C1,-,R936512,M3624,-,-,p-bromo-phenol,Koerner,charochkina,A5793,-,-,-,9.363,Log unit,25,?C,Oc1ccc(Br)cc1,{oh=5}
OC1=CC(I)=CC=C1,-,R936513,M2995,-,-,m-iodo-phenol,Koerner,charochkina,A5793,-,-,-,9.0465,Log unit,25,?C,Oc1cc(I)ccc1,{oh=7}
OC1=CC=C(I)C=C1,-,R936514,M11943,-,-,p-iodo-phenol,Koerner,charochkina,A5793,-,-,-,9.313499,Log unit,25,?C,Oc1ccc(I)cc1,{oh=5}
CC1=CC(=CC(C)=C1O)C#N,-,R936515,M124283,-,-,"2,6-DIMETHYL-4-CYANOPHENOL",Koerner,charochkina,A5793,-,-,-,8.27,Log unit,25,?C,Oc1c(cc(C#N)cc1C)C,{oh=0}
CC1=CC(O)=CC(C)=C1C#N,-,R936516,M124321,-,-,"3,5-dimethyl-4-cyano-phenol",Koerner,charochkina,A5793,-,-,-,8.21,Log unit,25,?C,Oc1cc(C)c(C#N)c(c1)C,{oh=0}
OC1=CC(=CC=C1)N(=O)=O,-,R936517,M10051,-,-,m-nitro-phenol,Koerner,charochkina,A5793,-,-,-,8.355,Log unit,25,?C,Oc1cccc(c1)N(=O)=O,{oh=3}
OC1=CC=C(C=C1)N(=O)=O,-,R936518,M1034,-,-,p-nitro-phenol,Koerner,charochkina,A5793,-,-,-,7.145,Log unit,25,?C,Oc1ccc(cc1)N(=O)=O,{oh=9}
CC1=CC(O)=CC(C)=C1N(=O)=O,-,R936519,M124322,-,-,"3,5-dimethyl-4-nitro-phenol",Koerner,charochkina,A5793,-,-,-,8.24,Log unit,25,?C,Oc1cc(C)c(N(=O)=O)c(c1)C,{oh=0}
OC1=CC=C(C(=C1)N(=O)=O)N(=O)=O,-,R936520,M228,-,-,"3,4-dinitro-phenol",Koerner,charochkina,A5793,-,-,-,5.42,Log unit,25,?C,Oc1ccc(N(=O)=O)c(c1)N(=O)=O,{oh=0}
OC1=CC(=C([O-])C=C1)N(=O)=O,-,R936521,M233067,-,-,mononitrohydrquinone,Koerner,charochkina,A5793,-,-,-,10,Log unit,25,?C,Oc1ccc([O-])c(N(=O)=O)c1,{oh=9}
OC1=C([O-])C(=CC=C1)N(=O)=O,-,R936522,M124265,-,-,3-nitropyrocatechine,Koerner,charochkina,A5793,-,-,-,11.8,Log unit,25,?C,Oc1cccc(c1[O-])N(=O)=O,{oh=3}
COC1=CC=CC(O)=C1,-,R936523,M436,-,-,m-methoxy-phenol,Koerner,charochkina,A5793,-,-,-,9.651,Log unit,25,?C,Oc1cccc(c1)OC,{oh=3}
COC1=CC=C(O)C=C1,-,R936524,M7663,-,-,p-methoxy-phenol,Koerner,charochkina,A5793,-,-,-,10.12,Log unit,25,?C,Oc1ccc(cc1)OC,{oh=8}
NC(=O)C1=CC=CC=C1O,-,R936525,M10446,-,-,salicylamide,Koerner,charochkina,A5793,-,-,-,8.37,Log unit,25,?C,Oc1ccccc1C(=O)N,{oh=9}
CSC1=CC=CC(O)=C1,-,R936526,M124330,-,-,m-methyl-thio-phenol,Koerner,charochkina,A5793,-,-,-,9.53,Log unit,25,?C,Oc1cc(SC)ccc1,{oh=8}
CSC1=CC=C(O)C=C1,-,R936527,M8978,-,-,p-methyl-thio-phenol,Koerner,charochkina,A5793,-,-,-,9.53,Log unit,25,?C,Oc1ccc(SC)cc1,{oh=6}
CS(=O)(=O)C1=CC=CC(O)=C1,-,R936528,M124342,-,-,m-methylsulfonyl-phenol,Koerner,charochkina,A5793,-,-,-,9,Log unit,25,?C,Oc1cc(S(=O)(=O)C)ccc1,{oh=10}
CS(=O)(=O)C1=CC=C(O)C=C1,-,R936529,M124358,-,-,p-methylsulfonyl-phenol,Koerner,charochkina,A5793,-,-,-,7.83,Log unit,25,?C,Oc1ccc(S(=O)(=O)C)cc1,{oh=8}
CC1=CC(O)=CC(C)=C1S(C)(=O)=O,-,R936530,M124357,-,-,"4-methylsulfonyl-3,5-dimethyl-phenol",Koerner,charochkina,A5793,-,-,-,8.13,Log unit,25,?C,Oc1cc(c(S(=O)(=O)C)c(c1)C)C,{oh=8}
CCOP(=O)(OCC)C1=CC=CC(O)=C1,-,R936531,M735021,-,-,m-diethhydroxyphosphinyl-phenol,Koerner,charochkina,A5793,-,-,-,8.66,Log unit,25,?C,Oc1cc(P(=O)(OCC)OCC)ccc1,{oh=14}
CCOP(=O)(OCC)C1=CC=C(O)C=C1,-,R936532,M735024,-,-,p-diethhydroxyphosphinyl-phenol,Koerner,charochkina,A5793,-,-,-,8.28,Log unit,25,?C,Oc1ccc(P(=O)(OCC)OCC)cc1,{oh=12}
OC1=CC(Cl)=C(Cl)C(Cl)=C1,-,R936533,M22362,-,-,"3,4,5-trichloro-phenol",Koerner,charochkina,A5793,-,-,-,7.84,Log unit,25,?C,Oc1cc(c(Cl)c(Cl)c1)Cl,{oh=6}
OC1=CC=C(Cl)C(Cl)=C1,-,R936534,M12171,-,-,"3,4-dichloro-phenol",Koerner,charochkina,A5793,-,-,-,8.605,Log unit,25,?C,Oc1ccc(Cl)c(Cl)c1,{oh=5}
OC1=CC(Cl)=CC(Cl)=C1,-,R936535,M11881,-,-,"3,5-dichloro-phenol",Koerner,charochkina,A5793,-,-,-,8.18,Log unit,25,?C,Oc1cc(Cl)cc(Cl)c1,{oh=8}
OC1=CC(Br)=CC(Br)=C1,-,R936536,M22827,-,-,"3,5-dibromo-phenol",Koerner,charochkina,A5793,-,-,-,8.06,Log unit,25,?C,Oc1cc(Br)cc(Br)c1,{oh=8}
OC1=CC(I)=CC(I)=C1,-,R936537,M124320,-,-,"3,5-diiodo-phenol",Koerner,charochkina,A5793,-,-,-,8.1,Log unit,25,?C,Oc1cc(I)cc(I)c1,{oh=8}
OC1=CC(=CC(=C1)N(=O)=O)N(=O)=O,-,R936538,M10996,-,-,"3,5-dinitro-phenol",Koerner,charochkina,A5793,-,-,-,6.71,Log unit,25,?C,Oc1cc(cc(c1)N(=O)=O)N(=O)=O,{oh=0}
OCC1=CC=CC=C1,-,R936539,M12630,-,-,phenyl-methanol,Koerner,charochkina,A5793,-,-,-,15.4,Log unit,25,?C,OCc1ccccc1,{oh=5}
OC1=CC(=CC=C1)C#N,-,R936540,M10337,-,-,3-hydroxy-benzenecarbonitrile,Koerner,charochkina,A5793,-,-,-,8.59,Log unit,25,?C,Oc1cccc(c1)C#N,{oh=3}
OC1=CC=C(C=C1)C#N,-,R936541,M1680,-,-,p-cyano-phenol,Koerner,charochkina,A5793,-,-,-,7.9685,Log unit,25,?C,Oc1ccc(cc1)C#N,{oh=8}
CC1=CC(O)=CC=C1Cl,-,R936542,M1312,-,-,4-chloro-3-methyl-phenol,Koerner,charochkina,A5793,-,-,-,9.49,Log unit,25,?C,Oc1ccc(Cl)c(c1)C,{oh=5}
COC1=CC=C(O)C=C1Br,-,R936543,M1050437,-,-,3-bromo-4-methoxy-phenol,Koerner,charochkina,A5793,-,-,-,9.16,Log unit,25,?C,Oc1cc(Br)c(cc1)OC,{oh=5}
OCCOC1=CC=CC=C1,-,R936544,M9010,-,-,2-phenoxy-ethanol,Koerner,charochkina,A5793,-,-,-,15.1,Log unit,25,?C,OCCOc1ccccc1,{oh=7}
CC1=CC(O)=CC(C)=C1C,-,R936545,M2520,-,-,"3,4,5-trimethyl-phenol",Koerner,charochkina,A5793,-,-,-,10.38,Log unit,25,?C,Oc1cc(c(C)c(c1)C)C,{oh=0}
OC1=C2NN=CC2=CC=C1,-,R936546,M432579,-,-,1h-indazol-7-ol,Koerner,charochkina,A5793,-,-,-,8.6,Log unit,25,?C,Oc1c2[nH]ncc2ccc1,{oh=5}
OC1=CC2=CC=CC=C2C(=C1)N(=O)=O,-,R936547,M1050438,-,-,4-nitro-2-naphthol,Koerner,charochkina,A5793,-,-,-,8.09,Log unit,25,?C,Oc1cc2ccccc2c(c1)N(=O)=O,{oh=13}
OC1=CC2=C(C=CC=C2)C(Cl)=C1,-,R936548,M1050439,-,-,4-chloro-2-naphthol,Koerner,charochkina,A5793,-,-,-,8.82,Log unit,25,?C,Oc1cc(Cl)c2ccccc2c1,{oh=5}
OC1=CC2=C(C=CC=C2)C(Br)=C1,-,R936549,M1050440,-,-,4-bromo-1-naphthol,Koerner,charochkina,A5793,-,-,-,8.74,Log unit,25,?C,Oc1cc(Br)c2ccccc2c1,{oh=5}
OC1=CC2=C(C=CC=C2)C(I)=C1,-,R936550,M1050441,-,-,4-iodo-2-naphthol,Koerner,charochkina,A5793,-,-,-,8.81,Log unit,25,?C,Oc1cc(I)c2ccccc2c1,{oh=5}
NC1=CC(O)=CC2=CC=CC=C12,-,R936551,M1050442,-,-,4-amino-2-naphthol,Koerner,charochkina,A5793,-,-,-,3.45,Log unit,25,?C,Nc1c2ccccc2cc(c1)O,{nr2=6}
NC1=CC(O)=CC2=CC=CC=C12,-,R936552,M1050442,-,-,4-amino-2-naphthol,Koerner,charochkina,A5793,-,-,-,9.84,Log unit,25,?C,Oc1cc2ccccc2c(c1)N,{oh=11}
OC1=CC(=CC=C1Cl)C1=CC=CC=C1,-,R936553,M1050443,-,-,4-chloro-biphenyl-3-ol,Koerner,charochkina,A5793,-,-,-,8.07,Log unit,25,?C,Oc1c(Cl)ccc(c2ccccc2)c1,{oh=12}
OC1=CC(=CC=C1N(=O)=O)C1=CC=CC=C1,-,R936554,M34365,-,-,4-nitro-biphenyl-3-ol,Koerner,charochkina,A5793,-,-,-,6.74,Log unit,25,?C,Oc1cc(c2ccccc2)ccc1N(=O)=O,{oh=13}
CC1=CC=CC=C1O,-,R936555,M9499,-,-,2-methyl-phenol,Koerner,charochkina,A5793,-,-,-,10.325,Log unit,25,?C,Oc1ccccc1C,{oh=7}
CC1=CC=CC(O)=C1C,-,R936556,M9473,-,-,"2,3-dimethyl-phenol",Koerner,charochkina,A5793,-,-,-,10.542,Log unit,25,?C,Oc1cccc(c1C)C,{oh=3}
COC1=C(C=CC(C)=C1)C(O)=O,-,R936357,M1050390,-,-,2-methoxy-4-methyl-benzoic acid,Koerner,charochkina,A5793,-,-,-,4.38,Log unit,25,?C,OC(=O)c1ccc(cc1OC)C,"{co2h=8, aliphatic_carboxylic_acid=8}"
COC1=C(C=C(C)C=C1)C(O)=O,-,R936358,M1050391,-,-,2-methoxy-5-methyl-benzoic acid,Koerner,charochkina,A5793,-,-,-,4.2,Log unit,25,?C,OC(=O)c1c(ccc(c1)C)OC,"{co2h=8, aliphatic_carboxylic_acid=8}"
COC1=CC=CC(C)=C1C(O)=O,-,R936359,M111230,-,-,2-Methoxy-6-methyl-benzoic acid,Koerner,charochkina,A5793,-,-,-,3.46,Log unit,25,?C,OC(=O)c1c(cccc1OC)C,"{co2h=7, aliphatic_carboxylic_acid=7}"
COC1=C(C)C(=CC=C1)C(O)=O,-,R936360,M1050392,-,-,3-methoxy-2-methyl-benzoic acid,Koerner,charochkina,A5793,-,-,-,3.72,Log unit,25,?C,OC(=O)c1cccc(OC)c1C,"{co2h=11, aliphatic_carboxylic_acid=11}"
COC1=C(C)C=CC(=C1)C(O)=O,-,R936361,M78251,-,-,3-methoxy-4-methyl-benzoic acid,Koerner,charochkina,A5793,-,-,-,4.13,Log unit,25,?C,OC(=O)c1ccc(c(c1)OC)C,"{co2h=6, aliphatic_carboxylic_acid=6}"
COC1=CC(C(O)=O)=C(C)C=C1,-,R936362,M7976,-,-,5-methoxy-2-methyl-benzoic acid,Koerner,charochkina,A5793,-,-,-,3.84,Log unit,25,?C,OC(=O)c1c(ccc(c1)OC)C,"{co2h=7, aliphatic_carboxylic_acid=7}"
COC1=CC(C)=C(C=C1)C(O)=O,-,R936363,M735845,-,-,4-methoxy-2-methyl-benzoic acid,Koerner,charochkina,A5793,-,-,-,4.54,Log unit,25,?C,OC(=O)c1ccc(cc1C)OC,"{co2h=7, aliphatic_carboxylic_acid=7}"
COC1=C(C)C=C(C=C1)C(O)=O,-,R936364,M751724,-,-,4-Methoxy-3-methyl-benzoic acid,Koerner,charochkina,A5793,-,-,-,4.35,Log unit,25,?C,OC(=O)c1ccc(OC)c(c1)C,"{co2h=6, aliphatic_carboxylic_acid=6}"
OC(=O)CCC1=CC=CC=C1O,-,R936365,M749822,-,-,3-(2-hydroxyphenyl)-propanoic acid,Koerner,charochkina,A5793,-,-,-,4.75,Log unit,25,?C,OC(=O)CCc1ccccc1O,"{co2h=8, aliphatic_carboxylic_acid=8}"
COC1=CC=CC=C1C(O)C(O)=O,-,R936366,M112553,-,-,2-hydroxy-2-(2-methoxyphenyl)-acetic acid,Koerner,charochkina,A5793,-,-,-,3.64,Log unit,25,?C,OC(=O)C(c1ccccc1OC)O,"{co2h=8, aliphatic_carboxylic_acid=8}"
COC1=CC=C(C=C1)C(O)C(O)=O,-,R936367,M32566,-,-,2-hydroxy-2-(4-methoxyphenyl)-acetic acid,Koerner,charochkina,A5793,-,-,-,3.42,Log unit,25,?C,OC(=O)C(c1ccc(cc1)OC)O,"{co2h=8, aliphatic_carboxylic_acid=8}"
COC1=CC(CC(O)=O)=CC=C1O,-,R936368,M15777,-,-,2-(4-hydroxy-3-methoxyphenyl)-acetic acid,Koerner,charochkina,A5793,-,-,-,4.41,Log unit,25,?C,OC(=O)Cc1ccc(O)c(c1)OC,"{co2h=8, aliphatic_carboxylic_acid=8}"
CCOC1=CC=C(C(O)=O)C(O)=C1,-,R936369,M112578,-,-,4-ethoxy-2-hydroxy-benzoic acid,Koerner,charochkina,A5793,-,-,-,3.2,Log unit,25,?C,OC(=O)c1c(O)cc(cc1)OCC,"{co2h=12, aliphatic_carboxylic_acid=12}"
COC1=C(OC)C(=CC=C1)C(O)=O,-,R936370,M25300,-,-,"2,3-dimethoxy-benzoic acid",Koerner,charochkina,A5793,-,-,-,3.98,Log unit,25,?C,OC(=O)c1cccc(OC)c1OC,"{co2h=12, aliphatic_carboxylic_acid=12}"
COC1=CC(OC)=C(C=C1)C(O)=O,-,R936371,M17979,-,-,"2,4-dimethoxy-benzoic acid",Koerner,charochkina,A5793,-,-,-,4.36,Log unit,25,?C,OC(=O)c1ccc(cc1OC)OC,"{co2h=8, aliphatic_carboxylic_acid=8}"
COC1=CC=CC(OC)=C1C(O)=O,-,R936372,M25188,-,-,"2,6-dimethoxy-benzoic acid",Koerner,charochkina,A5793,-,-,-,3.44,Log unit,25,?C,OC(=O)c1c(cccc1OC)OC,"{co2h=8, aliphatic_carboxylic_acid=8}"
CCOC1=CC(C(O)=O)=C(C=C1)C(O)=O,-,R936373,M1050393,-,-,"4-ethoxy-1,2-benzenedicarboxylic acid",Koerner,charochkina,A5793,-,-,-,3.04,Log unit,25,?C,OC(=O)c1c(ccc(c1)OCC)C(=O)O,"{co2h=6, aliphatic_carboxylic_acid=6}"
CCOC1=CC(C([O-])=O)=C(C=C1)C(O)=O,-,R936374,M1050393,-,-,"4-ethoxy-1,2-benzenedicarboxylic acid",Koerner,charochkina,A5793,-,-,-,5.12,Log unit,25,?C,OC(=O)c1ccc(cc1C(=O)[O-])OCC,"{co2h=9, aliphatic_carboxylic_acid=9}"
COC1=C(OC)C=C(C=C1)C(O)=O,-,R936375,M18050,-,-,"3,4-Dimethoxy-benzoic acid",Koerner,charochkina,A5793,-,-,-,4.36,Log unit,25,?C,OC(=O)c1ccc(OC)c(c1)OC,"{co2h=6, aliphatic_carboxylic_acid=6}"
COC1=CC(=CC(OC)=C1)C(O)=O,-,R936376,M24708,-,-,"3,5-dimethoxy-benzoic acid",Koerner,charochkina,A5793,-,-,-,3.97,Log unit,25,?C,OC(=O)c1cc(cc(c1)OC)OC,"{co2h=6, aliphatic_carboxylic_acid=6}"
COC1=CC(=CC(OC)=C1O)C(O)=O,-,R936377,M21316,-,-,"4-Hydroxy-3,5-dimethoxy-benzoic acid",Koerner,charochkina,A5793,-,-,-,4.34,Log unit,25,?C,OC(=O)c1cc(c(O)c(c1)OC)OC,"{co2h=7, aliphatic_carboxylic_acid=7}"
COC1=CC(=CC(OC)=C1O)C([O-])=O,-,R936378,M21316,-,-,"4-Hydroxy-3,5-dimethoxy-benzoic acid",Koerner,charochkina,A5793,-,-,-,9.49,Log unit,25,?C,Oc1c(cc(C(=O)[O-])cc1OC)OC,{oh=0}
CCOC(=O)C(CC)(CC)C(O)=O,-,R936379,M127219,-,-,2-ethoxycarbonyl-2-ethyl-butanoic acid,Koerner,charochkina,A5793,-,-,-,3.54,Log unit,25,?C,OC(=O)C(C(=O)OCC)(CC)CC,"{co2h=2, aliphatic_carboxylic_acid=2}"
COC(=O)C(C)(C)C(C)(C)C(O)=O,-,R936380,M1018623,-,-,"3-methoxycarbonyl-2,2,3-trimethyl-butanoic acid",Koerner,charochkina,A5793,-,-,-,4.98,Log unit,25,?C,OC(=O)C(C)(C)C(C(=O)OC)(C)C,"{co2h=2, aliphatic_carboxylic_acid=2}"
CC1=C(C=CC=C1C(O)=O)C#N,-,R936381,M1050394,-,-,3-cyano-2-methyl-benzoic acid,Koerner,charochkina,A5793,-,-,-,3.16,Log unit,25,?C,OC(=O)c1cccc(c1C)C#N,"{co2h=11, aliphatic_carboxylic_acid=11}"
CC1=C(C=C(C=C1)C#N)C(O)=O,-,R936382,M1050395,-,-,3-cyano-6-methyl-benzoic acid,Koerner,charochkina,A5793,-,-,-,3.31,Log unit,25,?C,OC(=O)c1c(ccc(c1)C#N)C,"{co2h=11, aliphatic_carboxylic_acid=11}"
CC1=C(C=CC(=C1)C#N)C(O)=O,-,R936383,M1050396,-,-,4-cyano-2-methyl-benzoic acid,Koerner,charochkina,A5793,-,-,-,3.14,Log unit,25,?C,OC(=O)c1ccc(cc1C)C#N,"{co2h=7, aliphatic_carboxylic_acid=7}"
OC(=O)C=C(Cl)C1=CC=CC=C1,-,R936384,M1050397,-,-,3-chloro-3-phenyl-propenoic acid,Koerner,charochkina,A5793,-,-,-,3.56,Log unit,25,?C,OC(=O)C=C(Cl)c1ccccc1,"{co2h=11, aliphatic_carboxylic_acid=11}"
OC(=O)C=CC1=CC=CC=C1F,-,R936385,M20493,-,-,3-(2-fluorophenyl)-propenoic acid,Koerner,charochkina,A5793,-,-,-,4.28,Log unit,25,?C,OC(=O)C=Cc1c(F)cccc1,"{co2h=11, aliphatic_carboxylic_acid=11}"
OC(=O)C=CC1=CC(Br)=CC=C1O,-,R936386,M1050398,-,-,3-(5-bromo-2-hydroxyphenyl)-propenoic acid,Koerner,charochkina,A5793,-,-,-,3.62,Log unit,25,?C,OC(=O)C=Cc1cc(Br)ccc1O,"{co2h=12, aliphatic_carboxylic_acid=12}"
OC(=O)C1=CC(C=CN(=O)=O)=CC=C1,-,R936387,M1050399,-,-,3-(2-nitrovinyl)-benzoic acid,Koerner,charochkina,A5793,-,-,-,3.87,Log unit,25,?C,OC(=O)c1cccc(c1)C=CN(=O)=O,"{co2h=6, aliphatic_carboxylic_acid=6}"