Smiles,CASRN,Record ID,Molecule ID,External ID,N,Name,Introducer,Modifer,Article ID,PUBMED ID,PAGE,TABLE,pKa,pKa Unit,Temperature,Temperature Unit,Ionizable center smiles,IC group
CCC(C(CC)C(O)=O)C(O)=O,-,R935537,M24808,-,-,"rac-alpha,alpha'-diethylprotartaric acid",Koerner,charochkina,A5793,-,-,-,3.785,Log unit,25,?C,OC(=O)C(CC)C(C(=O)O)CC,"{co2h=2, aliphatic_carboxylic_acid=2}"
CCC(C(O)=O)C(CC)(CC)C(O)=O,-,R935538,M1018353,-,-,triethylprotartaric acid,Koerner,charochkina,A5793,-,-,-,4,Log unit,25,?C,OC(=O)C(CC)C(C(=O)O)(CC)CC,"{co2h=2, aliphatic_carboxylic_acid=2}"
CC(C)(C(O)=O)C(C)(C)C(O)=O,-,R935539,M22976,-,-,tetramethylprotartaric acid,Koerner,charochkina,A5793,-,-,-,3.9,Log unit,25,?C,OC(=O)C(C)(C)C(C(=O)O)(C)C,"{co2h=2, aliphatic_carboxylic_acid=2}"
CC(CC(O)=O)CC(O)=O,-,R935540,M22829,-,-,beta-Methylglutaric acid,Koerner,charochkina,A5793,-,-,-,4.65,Log unit,25,?C,OC(=O)CC(C)CC(=O)O,"{co2h=2, aliphatic_carboxylic_acid=2}"
CCC(CC(O)=O)CC(O)=O,-,R935541,M124337,-,-,beta-ethylglutaric acid,Koerner,charochkina,A5793,-,-,-,4.585,Log unit,25,?C,OC(=O)CC(CC)CC(=O)O,"{co2h=2, aliphatic_carboxylic_acid=2}"
CC(C)(CC(O)=O)CC(O)=O,-,R935542,M2295,-,-,"beta,beta'-dimethylglutaric acid",Koerner,charochkina,A5793,-,-,-,4.2,Log unit,25,?C,OC(=O)CC(C)(C)CC(=O)O,"{co2h=2, aliphatic_carboxylic_acid=2}"
CCCC(CC(O)=O)CC(O)=O,-,R935543,M1018354,-,-,beta-n-propylglutaric acid,Koerner,charochkina,A5793,-,-,-,4.61,Log unit,25,?C,OC(=O)CC(CCC)CC(=O)O,"{co2h=2, aliphatic_carboxylic_acid=2}"
CC(C)C(CC(O)=O)CC(O)=O,-,R935544,M73871,-,-,beta-Isopropylglutaric acid,Koerner,charochkina,A5793,-,-,-,4.615,Log unit,25,?C,OC(=O)CC(C(C)C)CC(=O)O,"{co2h=2, aliphatic_carboxylic_acid=2}"
CCC(C)(CC(O)=O)CC(O)=O,-,R935545,M30133,-,-,Beta-beta'-methyl-ethyl-glutaric acid,Koerner,charochkina,A5793,-,-,-,3.925,Log unit,25,?C,OC(=O)CC(C)(CC)CC(=O)O,"{co2h=2, aliphatic_carboxylic_acid=2}"
CCC(CC)(CC(O)=O)CC(O)=O,-,R935546,M1018355,-,-,beta-beta'-diethylglutaric acid,Koerner,charochkina,A5793,-,-,-,3.85,Log unit,25,?C,OC(=O)CC(CC)(CC)CC(=O)O,"{co2h=2, aliphatic_carboxylic_acid=2}"
CCCC(C)(CC(O)=O)CC(O)=O,-,R935547,M1018356,-,-,"beta,beta'-methyl-n-propylglutaric acid",Koerner,charochkina,A5793,-,-,-,3.93,Log unit,25,?C,OC(=O)CC(C)(CCC)CC(=O)O,"{co2h=2, aliphatic_carboxylic_acid=2}"
CCCC(CC)(CC(O)=O)CC(O)=O,-,R935548,M1018357,-,-,"beta,beta-ethyl-n-propylglutaric acid",Koerner,charochkina,A5793,-,-,-,4.2,Log unit,25,?C,OC(=O)CC(CC)(CCC)CC(=O)O,"{co2h=2, aliphatic_carboxylic_acid=2}"
CCCC(CCC)(CC(O)=O)CC(O)=O,-,R935549,M1018358,-,-,"beta,beta-di-n-propylglutaric acid",Koerner,charochkina,A5793,-,-,-,3.99,Log unit,25,?C,OC(=O)CC(CCC)(CCC)CC(=O)O,"{co2h=2, aliphatic_carboxylic_acid=2}"
OC(=O)C=C,-,R935550,M17550,-,-,ACRYLIC ACID,Koerner,charochkina,A5793,-,-,-,4.25,Log unit,25,?C,OC(=O)C=C,"{co2h=2, aliphatic_carboxylic_acid=2}"
CC=CC(O)=O,-,R935551,M6077,-,-,trans-Crotonic acid,Koerner,charochkina,A5793,-,-,-,4.695,Log unit,25,?C,OC(=O)C=CC,"{co2h=2, aliphatic_carboxylic_acid=2}"
OC(=O)CC=C,-,R935553,M8838,-,-,vinyl-acetic acid,Koerner,charochkina,A5793,-,-,-,4.35,Log unit,25,?C,OC(=O)CC=C,"{co2h=2, aliphatic_carboxylic_acid=2}"
CC(=C)C(O)=O,-,R935554,M1291,-,-,alpha-Methacrylic acid,Koerner,charochkina,A5793,-,-,-,4.66,Log unit,25,?C,OC(=O)C(=C)C,"{co2h=2, aliphatic_carboxylic_acid=2}"
CCC=CC(O)=O,-,R935555,M13564,-,-,2-PENTENOIC ACID,Koerner,charochkina,A5793,-,-,-,4.695,Log unit,25,?C,OC(=O)C=CCC,"{co2h=2, aliphatic_carboxylic_acid=2}"
CC=CCC(O)=O,-,R935556,M1018359,-,-,n-butene-2-carboxylic acid -1,Koerner,charochkina,A5793,-,-,-,4.51,Log unit,25,?C,OC(=O)CC=CC,"{co2h=2, aliphatic_carboxylic_acid=2}"
CC1=NC2=C(C=CC=C2N)C=C1,-,R933373,M109496,-,-,8-Aminoquinaldine,Koerner,charochkina,A3555,12767145,-,-,4.86,Log unit,,-,n1c(ccc2cccc(c12)N)C,
CC1=NC2=C(C=CC=C2O)C=C1,-,R933374,M7178,-,-,8-HYDROXY-2-METHYLQUINOLINE,Koerner,charochkina,A3555,12767145,-,-,5.55,Log unit,,-,n1c(ccc2cccc(c12)O)C,
CC1=CC=NC2=C1C=CC=C2O,-,R933375,M8368,-,-,8-HYDROXY-4-METHYLQUINOLINE,Koerner,charochkina,A3555,12767145,-,-,5.56,Log unit,,-,n1ccc(c2cccc(c12)O)C,
C1=CC2=CC3=C(C=CC=C3)N=C2C=C1,-,R933376,M2399,-,-,acridine,Koerner,charochkina,A3555,12767145,-,-,5.6,Log unit,,-,n1c2ccccc2cc2c1cccc2,
C[C@H](N)C(O)=O,-,R933377,M9273,-,-,ALANINE2,Koerner,charochkina,A3555,12767145,-,-,9.87,Log unit,,-,NC(C)C(=O)O,
C[C@H](N)C(=O)NCC(=O)NCC(O)=O,-,R933378,M123195,-,-,ALANYLGLYCYLGLYCINE2,Koerner,charochkina,A3555,12767145,-,-,8.15,Log unit,,-,NC(C)C(=O)NCC(=O)NCC(=O)O,
NCC=C,-,R933379,M12013,-,-,allylamine,Koerner,charochkina,A3555,12767145,-,-,9.69,Log unit,,-,NCC=C,
NCC#N,-,R933380,M21460,-,-,AMINOACETONITRILE,Koerner,charochkina,A3555,12767145,-,-,5.34,Log unit,,-,NCC#N,
NC(C(O)=O)C(O)=O,-,R933381,M124972,-,-,AMINOMALONICACID2,Koerner,charochkina,A3555,12767145,-,-,9.83,Log unit,,-,NC(C(=O)O)C(=O)O,
NC1=CC=CC=C1,-,R933382,M8413,-,-,aniline,Koerner,charochkina,A3555,12767145,-,-,4.58,Log unit,,-,Nc1ccccc1,
[H]N=C(N)NCCC[C@H](N)C(O)=O,-,R933383,M50281,-,-,ARGININE2,Koerner,charochkina,A3555,12767145,-,-,8.99,Log unit,,-,NC(CCCNC(=N)N)C(=O)O,
[H]N=C(N)NCCC[C@H](N)C(O)=O,-,R933384,M50281,-,-,ARGININE3,Koerner,charochkina,A3555,12767145,-,-,12.48,Log unit,,-,N=C(NCCCC(N)C(=O)O)N,
N[C@@H](CC(N)=O)C(O)=O,-,R933385,M1856,-,-,ASPARAGINE2,Koerner,charochkina,A3555,12767145,-,-,8.72,Log unit,,-,NC(CC(=O)N)C(=O)O,
N[C@@H](CC(O)=O)C(O)=O,-,R933386,M50477,-,-,ASPARTICACID2,Koerner,charochkina,A3555,12767145,-,-,9.9,Log unit,,-,NC(CC(=O)O)C(=O)O,
C[C@H](N)C(=O)N[C@@H](CC1=CN=CN1)C(O)=O,-,R933387,M124368,-,-,B-ALANYLHISTIDINE3,Koerner,charochkina,A3555,12767145,-,-,6.86,Log unit,,-,n1cc(CC(NC(=O)C(N)C)C(=O)O)[nH]c1,
NC1=CC=C(C=C1)C1=CC=C(N)C=C1,-,R933388,M3760,-,-,Benzidine,Koerner,charochkina,A3555,12767145,-,-,4.7,Log unit,,-,Nc1ccc(cc1)c1ccc(cc1)N,
N1C=NC2=C1C=CC=C2,-,R933389,M4217,-,-,Benzimidazole,Koerner,charochkina,A3555,12767145,-,-,5.53,Log unit,,-,n1c[nH]c2ccccc12,
NCC1=CC=CC=C1,-,R933390,M12270,-,-,benzylamine,Koerner,charochkina,A3555,12767145,-,-,9.35,Log unit,,-,NCc1ccccc1,
CCCCN,-,R933391,M3999,-,-,Butylamine,Koerner,charochkina,A3555,12767145,-,-,10.64,Log unit,,-,NCCCC,
CCCCNC,-,R933392,M9020,-,-,Butylmethylamine,Koerner,charochkina,A3555,12767145,-,-,10.9,Log unit,,-,N(C)CCCC,
NC1CCCCC1,-,R933393,M8396,-,-,CYCLOHEXYLAMINE,Koerner,charochkina,A3555,12767145,-,-,10.64,Log unit,,-,NC1CCCCC1,
NC1CCCC1,-,R933394,M7353,-,-,Cyclopentylamine,Koerner,charochkina,A3555,12767145,-,-,10.65,Log unit,,-,NC1CCCC1,
NC1CC1,-,R933395,M23547,-,-,Cyclopropylamine,Koerner,charochkina,A3555,12767145,-,-,9.1,Log unit,,-,NC1CC1,
N[C@@H](CS)C(O)=O,-,R933396,M50448,-,-,CYSTEINE2,Koerner,charochkina,A3555,12767145,-,-,10.7,Log unit,,-,SCC(N)C(=O)O,
COCCNCCOC,-,R933397,M65426,-,-,DI(2-METHOXYETHYL)AMINE,Koerner,charochkina,A3555,12767145,-,-,9.51,Log unit,,-,N(CCOC)CCOC,
CCOCCNCCOCC,-,R933398,M124474,-,-,DI(ETHOXYETHYL)AMINE,Koerner,charochkina,A3555,12767145,-,-,8.47,Log unit,,-,N(CCOCC)CCOCC,
CC[C@H](C)N[C@@H](C)CC,-,R933399,M124475,-,-,DI-S-BUTYLAMINE,Koerner,charochkina,A3555,12767145,-,-,10.91,Log unit,,-,N(C(CC)C)C(CC)C,
C=CCNCC=C,-,R933400,M2392,-,-,diallylamine,Koerner,charochkina,A3555,12767145,-,-,9.29,Log unit,,-,N(CC=C)CC=C,
C(NCC1=CC=CC=C1)C1=CC=CC=C1,-,R933401,M18459,-,-,Dibenzylamine,Koerner,charochkina,A3555,12767145,-,-,8.52,Log unit,,-,N(Cc1ccccc1)Cc1ccccc1,
CCCCNCCCC,-,R933402,M5214,-,-,DIBUTYLAMINE,Koerner,charochkina,A3555,12767145,-,-,11.25,Log unit,,-,N(CCCC)CCCC,
C1CCC(CC1)NC1CCCCC1,-,R933403,M18386,-,-,DICYCLOHEXYLAMINE,Koerner,charochkina,A3555,12767145,-,-,11.25,Log unit,,-,N(C1CCCCC1)C1CCCCC1,
C1CCC(C1)NC1CCCC1,-,R933404,M124476,-,-,DICYCLOPENTYLAMINE,Koerner,charochkina,A3555,12767145,-,-,10.93,Log unit,,-,N(C1CCCC1)C1CCCC1,
CCCCCCCCCCCCNCCCCCCCCCCCC,-,R933405,M72201,-,-,Didodecylamine,Koerner,charochkina,A3555,12767145,-,-,10.99,Log unit,,-,N(CCCCCCCCCCCC)CCCCCCCCCCCC,
OCCNCCO,-,R933406,M13983,-,-,Diethanolamine,Koerner,charochkina,A3555,12767145,-,-,8.88,Log unit,,-,N(CCO)CCO,
CCNCC,-,R933407,M3990,-,-,Diethylamine,Koerner,charochkina,A3555,12767145,-,-,10.8,Log unit,,-,N(CC)CC,
CCN(C)CC,-,R933408,M3374,-,-,Diethylmethylamine,Koerner,charochkina,A3555,12767145,-,-,10.43,Log unit,,-,N(CC)(CC)C,
CCCCCCNCCCCCC,-,R933409,M8909,-,-,DIHEXYLAMINE,Koerner,charochkina,A3555,12767145,-,-,11,Log unit,,-,N(CCCCCC)CCCCCC,
CNC,-,R933410,M19196,-,-,DIMETHYLAMINE,Koerner,charochkina,A3555,12767145,-,-,10.77,Log unit,,-,N(C)C,
N(C1=CC=CC=C1)C1=CC=CC=C1,-,R933411,M2076,-,-,diphenylamine,Koerner,charochkina,A3555,12767145,-,-,0.9,Log unit,,-,N(c1ccccc1)c1ccccc1,
CCCNCCC,-,R933412,M12204,-,-,dipropylamine,Koerner,charochkina,A3555,12767145,-,-,10.91,Log unit,,-,N(CCC)CCC,
CCOC(=O)C1=CC=CN=C1,-,R933413,M12789,-,-,ETHYL3-PYRIDINECARBOXYLATE,Koerner,charochkina,A3555,12767145,-,-,3.35,Log unit,,-,n1cc(ccc1)C(=O)OCC,
CCOC(=O)C1=CC=NC=C1,-,R933414,M6651,-,-,ETHYL4-PYRIDINECARBOXYLATE,Koerner,charochkina,A3555,12767145,-,-,3.45,Log unit,,-,n1ccc(cc1)C(=O)OCC,
CCN,-,R933415,M9452,-,-,Ethylamine,Koerner,charochkina,A3555,12767145,-,-,10.63,Log unit,,-,NCC,
[H]N=CC,-,R933416,M1012566,-,-,Ethylenimine,Koerner,charochkina,A3555,12767145,-,-,8.04,Log unit,,-,N=CC,
CCN1CCCC1,-,R933417,M31856,-,-,ETHYLPYRROLIDINE,Koerner,charochkina,A3555,12767145,-,-,10.43,Log unit,,-,N1(CCCC1)CC,
N[C@@H](CCC(O)=O)C(O)=O,-,R933418,M50478,-,-,GLUTAMICACID2,Koerner,charochkina,A3555,12767145,-,-,9.47,Log unit,,-,NC(CCC(=O)O)C(=O)O,
N[C@@H](CCC(N)=O)C(O)=O,-,R933419,M14048,-,-,GLUTAMINE2,Koerner,charochkina,A3555,12767145,-,-,9.13,Log unit,,-,NC(CCC(=O)N)C(=O)O,
NCC(O)=O,-,R933420,M1956,-,-,GLYCINE2,Koerner,charochkina,A3555,12767145,-,-,9.78,Log unit,,-,NCC(=O)O,
N[C@@H](CC1=CN=CN1)C(O)=O,-,R933421,M3940,-,-,HISTIDINE2,Koerner,charochkina,A3555,12767145,-,-,9.33,Log unit,,-,NC(Cc1[nH]cnc1)C(=O)O,
N[C@@H](CC1=CN=CN1)C(O)=O,-,R933422,M3940,-,-,HISTIDINE3,Koerner,charochkina,A3555,12767145,-,-,6.04,Log unit,,-,n1cc(CC(N)C(=O)O)[nH]c1,
N1C=CN=C1,-,R933423,M9590,-,-,Imidazole,Koerner,charochkina,A3555,12767145,-,-,6.95,Log unit,,-,n1c[nH]cc1,
N1C=CN=C1,-,R933424,M9590,-,-,IMMIDAZOLE,Koerner,charochkina,A3555,12767145,-,-,6.99,Log unit,,-,n1c[nH]cc1,
C1CC2=C(N1)C=CC=C2,-,R933425,M6349,-,-,indoline,Koerner,charochkina,A3555,12767145,-,-,4.9,Log unit,,-,N1CCc2ccccc12,
CC(C)CN,-,R933426,M5495,-,-,Isobutylamine,Koerner,charochkina,A3555,12767145,-,-,10.41,Log unit,,-,NCC(C)C,
CC[C@H](C)[C@H](N)C(O)=O,-,R933427,M138,-,-,ISOLEUCINE2,Koerner,charochkina,A3555,12767145,-,-,9.76,Log unit,,-,NC(C(C)CC)C(=O)O,
CC(C)N,-,R933428,M5061,-,-,Isopropylamine,Koerner,charochkina,A3555,12767145,-,-,10.64,Log unit,,-,NC(C)C,
C1=CC2=C(C=C1)C=NC=C2,-,R933429,M536,-,-,isoquinoline,Koerner,charochkina,A3555,12767145,-,-,5.4,Log unit,,-,n1cc2ccccc2cc1,
CC(C)C[C@H](N)C(O)=O,-,R933430,M9909,-,-,LEUCINE2,Koerner,charochkina,A3555,12767145,-,-,9.74,Log unit,,-,NC(CC(C)C)C(=O)O,
NCCCC[C@H](N)C(O)=O,-,R933431,M5499,-,-,LYSINE2,Koerner,charochkina,A3555,12767145,-,-,9.06,Log unit,,-,NC(CCCCN)C(=O)O,
NCCCC[C@H](N)C(O)=O,-,R933432,M5499,-,-,LYSINE3,Koerner,charochkina,A3555,12767145,-,-,10.54,Log unit,,-,NCCCCC(N)C(=O)O,
CC1=CC=CC(N)=C1,-,R933433,M5064,-,-,m-Toluidine,Koerner,charochkina,A3555,12767145,-,-,4.71,Log unit,,-,Nc1cc(ccc1)C,
CSCC[C@H](N)C(O)=O,-,R933434,M2553,-,-,METHIONINE2,Koerner,charochkina,A3555,12767145,-,-,9.28,Log unit,,-,NC(CCSC)C(=O)O,
COC(=O)CN,-,R933435,M67220,-,-,METHOXYCARBONYLMETHYLAMINE,Koerner,charochkina,A3555,12767145,-,-,7.66,Log unit,,-,NCC(=O)OC,
CN,-,R933436,M636,-,-,Methylamine,Koerner,charochkina,A3555,12767145,-,-,10.62,Log unit,,-,NC,
C1COCCN1,-,R933437,M13655,-,-,morpholine,Koerner,charochkina,A3555,12767145,-,-,8.49,Log unit,,-,N1CCOCC1,
CN1CCN(C)CC1,-,R933438,M18574,-,-,"N,N'-dimethylpiperazine",Koerner,charochkina,A3555,12767145,-,-,8.54,Log unit,,-,N1(CCN(CC1)C)C,
CCN(CC)C1=CC=CC=C1C,-,R933439,M22324,-,-,"N,N-Diethyl-o-toluidine",Koerner,charochkina,A3555,12767145,-,-,7.18,Log unit,,-,N(c1ccccc1C)(CC)CC,
CCN(CC)C1=CC=CC=C1,-,R933440,M3195,-,-,"n,n-diethylaniline",Koerner,charochkina,A3555,12767145,-,-,6.56,Log unit,,-,N(c1ccccc1)(CC)CC,
CCN(CC)CC1=CC=CC=C1,-,R933441,M67717,-,-,"N,N-DIETHYLBENZYLAMINE",Koerner,charochkina,A3555,12767145,-,-,9.48,Log unit,,-,N(CC)(CC)Cc1ccccc1,
CCN(CC)CCN,-,R933442,M18320,-,-,"N,N-Diethylethylenediamine",Koerner,charochkina,A3555,12767145,-,-,10.46,Log unit,,-,N(CC)(CC)CCN,
CN(C)C1=CC(C)=CC=C1,-,R933443,M1703,-,-,"N,N-dimethyl-m-toluidine",Koerner,charochkina,A3555,12767145,-,-,5.34,Log unit,,-,N(c1cc(ccc1)C)(C)C,
CN(C)C1=CC=CC=C1C,-,R933444,M4926,-,-,"N,N-Dimethyl-o-toluidine",Koerner,charochkina,A3555,12767145,-,-,5.86,Log unit,,-,N(c1ccccc1C)(C)C,
CN(C)C1=CC=C(C)C=C1,-,R933445,M3619,-,-,"N,N-Dimethyl-p-toluidine",Koerner,charochkina,A3555,12767145,-,-,5.63,Log unit,,-,N(c1ccc(cc1)C)(C)C,
CN(C)C1CCCCC1,-,R933446,M18267,-,-,"N,N-Dimethylaminocyclohexane",Koerner,charochkina,A3555,12767145,-,-,10.72,Log unit,,-,N(C1CCCCC1)(C)C,
CN(C)C1=CC=CC=C1,-,R933447,M5099,-,-,"n,n-dimethylaniline",Koerner,charochkina,A3555,12767145,-,-,5.15,Log unit,,-,N(c1ccccc1)(C)C,
CN(C)CC1=CC=CC=C1,-,R933448,M13295,-,-,"N,N-DIMETHYLBENZYLAMINE",Koerner,charochkina,A3555,12767145,-,-,9.02,Log unit,,-,N(C)(C)Cc1ccccc1,
NCCNCCO,-,R933449,M18769,-,-,N-(2-Hydroxyethyl)ethylenediamine,Koerner,charochkina,A3555,12767145,-,-,10.12,Log unit,,-,N(CCO)CCN,
C[C@H](N)C(=O)NCC(O)=O,-,R933450,M124384,-,-,N-ALANYLGLYCINE2,Koerner,charochkina,A3555,12767145,-,-,8.11,Log unit,,-,NC(C)C(=O)NCC(=O)O,
CCCCNCC(O)=O,-,R933451,M124385,-,-,N-BUTYLGLYCINE2,Koerner,charochkina,A3555,12767145,-,-,10.25,Log unit,,-,N(CC(=O)O)CCCC,
CCNC1=CC=CC=C1C,-,R933452,M18116,-,-,N-Ethyl-o-toluidine,Koerner,charochkina,A3555,12767145,-,-,4.92,Log unit,,-,N(c1ccccc1C)CC,
CCNC1=CC=CC=C1,-,R933453,M7977,-,-,n-ethylaniline,Koerner,charochkina,A3555,12767145,-,-,5.11,Log unit,,-,N(c1ccccc1)CC,
CCN1CCOCC1,-,R933454,M18335,-,-,N-ETHYLMORPHOLINE,Koerner,charochkina,A3555,12767145,-,-,7.67,Log unit,,-,N1(CCOCC1)CC,
CC(C)NC1=CC=CC=C1,-,R933455,M23587,-,-,N-ISOPROPYLANILINE,Koerner,charochkina,A3555,12767145,-,-,5.5,Log unit,,-,N(c1ccccc1)C(C)C,
C[C@H](N)C(=O)N[C@@H](C)C(O)=O,-,R933456,M70446,-,-,N-L-ALANYL-D-ALANINE2,Koerner,charochkina,A3555,12767145,-,-,8.3,Log unit,,-,NC(C)C(=O)NC(C)C(=O)O,
CNC1=CC=CC2=C1C=CC=C2,-,R933457,M26491,-,-,N-Methyl-1-naphthylamine,Koerner,charochkina,A3555,12767145,-,-,3.7,Log unit,,-,N(c1cccc2ccccc12)C,
CNC1=CC=CC=C1,-,R933458,M107,-,-,N-Methylaniline,Koerner,charochkina,A3555,12767145,-,-,4.4,Log unit,,-,N(c1ccccc1)C,
CN1CCOCC1,-,R933459,M10411,-,-,n-methylmorpholine,Koerner,charochkina,A3555,12767145,-,-,7.13,Log unit,,-,N1(CCOCC1)C,
CN1CCCCC1,-,R933460,M8397,-,-,n-methylpiperidine,Koerner,charochkina,A3555,12767145,-,-,10.19,Log unit,,-,N1(CCCCC1)C,
CC(C)(C)NC1=CC=CC=C1,-,R933461,M124478,-,-,N-T-BUTYLANILINE,Koerner,charochkina,A3555,12767145,-,-,7.1,Log unit,,-,N(C(C)(C)C)c1ccccc1,
[H]N=C(N)OC,-,R933462,M89199,-,-,O-Methylisourea,Koerner,charochkina,A3555,12767145,-,-,9.72,Log unit,,-,N=C(OC)N,
CC1=CC=CC=C1N,-,R933463,M9899,-,-,o-Toluidine,Koerner,charochkina,A3555,12767145,-,-,4.45,Log unit,,-,Nc1ccccc1C,
NCCC1=CC=C(O)C=C1,-,R933464,M2404,-,-,p-(2-Aminoethyl)phenol,Koerner,charochkina,A3555,12767145,-,-,9.3,Log unit,,-,NCCc1ccc(cc1)O,
CC1=CC=C(N)C=C1,-,R933465,M10196,-,-,p-Toluidine,Koerner,charochkina,A3555,12767145,-,-,5.08,Log unit,,-,Nc1ccc(cc1)C,
N[C@@H](CC1=CC=CC=C1)C(O)=O,-,R933466,M1524,-,-,PHENYLALANINE2,Koerner,charochkina,A3555,12767145,-,-,9.31,Log unit,,-,NC(Cc1ccccc1)C(=O)O,
C1=CC2=C(C=C1)C=NN=C2,-,R933467,M6128,-,-,Phthalazine,Koerner,charochkina,A3555,12767145,-,-,3.47,Log unit,,-,n1cc2ccccc2cn1,
C1CNCCN1,-,R933468,M3320,-,-,piperazine,Koerner,charochkina,A3555,12767145,-,-,9.78,Log unit,,-,N1CCNCC1,
C1CCNCC1,-,R933469,M7529,-,-,piperidine,Koerner,charochkina,A3555,12767145,-,-,11.12,Log unit,,-,N1CCCCC1,
OC(=O)[C@@H]1CCCN1,-,R933470,M8097,-,-,PROLINE2,Koerner,charochkina,A3555,12767145,-,-,10.64,Log unit,,-,N1C(C(=O)O)CCC1,
CCCN,-,R933471,M12277,-,-,Propylamine,Koerner,charochkina,A3555,12767145,-,-,10.57,Log unit,,-,NCCC,
C1=CN=CC=N1,-,R933472,M5986,-,-,Pyrazine,Koerner,charochkina,A3555,12767145,-,-,0.6,Log unit,,-,n1ccncc1,
CCOC1=CC(N)=CC=C1,-,R933273,M43115,-,-,3-ETHOXYANILINE,Koerner,charochkina,A3555,12767145,-,-,4.17,Log unit,,-,Nc1cccc(c1)OCC,
CCC1=CC=CN=C1O,-,R933274,M124455,-,-,3-ETHYL-2-HYDROXYPYRIDINE,Koerner,charochkina,A3555,12767145,-,-,5,Log unit,,-,n1c(c(ccc1)CC)O,
CCC1=CC=C(C)N=C1,-,R933275,M7588,-,-,3-Ethyl-6-methylpyridine,Koerner,charochkina,A3555,12767145,-,-,6.51,Log unit,,-,n1cc(ccc1C)CC,
CCC1=CC(N)=CC=C1,-,R933276,M284,-,-,3-Ethylaniline,Koerner,charochkina,A3555,12767145,-,-,4.7,Log unit,,-,Nc1cccc(c1)CC,
NC1=CC=CC(F)=C1,-,R933277,M9559,-,-,3-Fluoroaniline,Koerner,charochkina,A3555,12767145,-,-,3.58,Log unit,,-,Nc1cccc(c1)F,
FC1=CC=CN=C1,-,R933278,M20255,-,-,3-FLUOROPYRIDINE,Koerner,charochkina,A3555,12767145,-,-,2.97,Log unit,,-,n1cc(ccc1)F,
OC1=CC=CN=C1,-,R933279,M3450,-,-,3-hydroxypyridine,Koerner,charochkina,A3555,12767145,-,-,4.8,Log unit,,-,n1cc(ccc1)O,
NC1=CC=CC(I)=C1,-,R933280,M2551,-,-,3-Iodoaniline,Koerner,charochkina,A3555,12767145,-,-,3.58,Log unit,,-,Nc1cccc(c1)I,
IC1=CC=CN=C1,-,R933281,M24632,-,-,3-IODOPYRIDINE,Koerner,charochkina,A3555,12767145,-,-,3.25,Log unit,,-,n1cc(ccc1)I,
CC(C)C1=CC=CN=C1,-,R933282,M90636,-,-,3-ISOPROPYLPYRIDINE,Koerner,charochkina,A3555,12767145,-,-,5.72,Log unit,,-,n1cc(ccc1)C(C)C,
COC1=CC(N)=CC=C1,-,R933283,M7180,-,-,3-METHOXYANILINE,Koerner,charochkina,A3555,12767145,-,-,4.2,Log unit,,-,Nc1cccc(c1)OC,
COC(=O)C1=CC(N)=CC=C1,-,R933284,M29445,-,-,3-METHOXYCARBONYLANILINE,Koerner,charochkina,A3555,12767145,-,-,3.64,Log unit,,-,Nc1cccc(c1)C(=O)OC,
COC(=O)C1=CC=CN=C1,-,R933285,M13656,-,-,3-METHOXYCARBONYLPYRIDINE,Koerner,charochkina,A3555,12767145,-,-,3.13,Log unit,,-,n1cc(ccc1)C(=O)OC,
COC1=CC=CN=C1,-,R933286,M31827,-,-,3-METHOXYPYRIDINE,Koerner,charochkina,A3555,12767145,-,-,4.91,Log unit,,-,n1cc(ccc1)OC,
C[C@H]1CCCNC1,-,R933287,M124456,-,-,3-Methylpiperidine,Koerner,charochkina,A3555,12767145,-,-,11.07,Log unit,,-,N1CC(CCC1)C,
CC1=CC=CN=C1,-,R933288,M4670,-,-,3-METHYLPYRIDINE,Koerner,charochkina,A3555,12767145,-,-,5.68,Log unit,,-,n1cc(ccc1)C,
CS(=O)(=O)C1=CC(N)=CC=C1,-,R933289,M124457,-,-,3-METHYLSULFONYLANILINE,Koerner,charochkina,A3555,12767145,-,-,2.68,Log unit,,-,Nc1cccc(c1)S(=O)(=O)C,
CSC1=CC=CN=C1,-,R933290,M124458,-,-,3-METHYLTHIOPYRIDINE,Koerner,charochkina,A3555,12767145,-,-,4.42,Log unit,,-,n1cc(ccc1)SC,
NC1=CC(=CC=C1)N(=O)=O,-,R933291,M12971,-,-,3-nitroaniline,Koerner,charochkina,A3555,12767145,-,-,2.46,Log unit,,-,Nc1cc(ccc1)N(=O)=O,
NCCCC1=CC=CC=C1,-,R933292,M6570,-,-,3-Phenyl-1-propylamine,Koerner,charochkina,A3555,12767145,-,-,10.39,Log unit,,-,NCCCc1ccccc1,
NC1=CC(N)=CC=C1,-,R933293,M18660,-,-,3-Phenylenediamine,Koerner,charochkina,A3555,12767145,-,-,4.88,Log unit,,-,Nc1cc(ccc1)N,
O=CC1=CN=CC=C1,-,R933294,M9205,-,-,3-PYRIDINECARBALDEHYDE,Koerner,charochkina,A3555,12767145,-,-,3.8,Log unit,,-,n1cccc(C=O)c1,
CC(C)(C)C1=CN=CC=C1,-,R933295,M124459,-,-,3-T-BUTYLPYRIDINE,Koerner,charochkina,A3555,12767145,-,-,5.82,Log unit,,-,n1cccc(c1)C(C)(C)C,
C1=CC(=CC=N1)C1=CC=NC=C1,-,R933296,M7080,-,-,"4,4'-DIPYRIDYL",Koerner,charochkina,A3555,12767145,-,-,4.82,Log unit,,-,n1ccc(c2ccncc2)cc1,
N[C@H](CC(F)(F)F)C(O)=O,-,R933297,M124346,-,-,"4,4,4-TRIFLUORO-2-AMINOBUTANOICACID2",Koerner,charochkina,A3555,12767145,-,-,8.17,Log unit,,-,NC(C(=O)O)CC(F)(F)F,
N[C@H](CC(O)=O)C(F)(F)F,-,R933298,M124974,-,-,"4,4,4-TRIFLUORO-3-AMINOBUTANOICACID2",Koerner,charochkina,A3555,12767145,-,-,5.82,Log unit,,-,NC(CC(=O)O)C(F)(F)F,
N1C=NC(=C1C1=CC=CC=C1)C1=CC=CC=C1,-,R933299,M67459,-,-,"4,5-Diphenylimidazole",Koerner,charochkina,A3555,12767145,-,-,5.9,Log unit,,-,n1c[nH]c(c1c1ccccc1)c1ccccc1,
C(N1CCCC1)C1=CC=NC=C1,-,R933300,M124460,-,-,4-(1-PYRROLIDINYLMETHYL)PYRIDINE,Koerner,charochkina,A3555,12767145,-,-,8.16,Log unit,,-,N1(Cc2ccncc2)CCCC1,