"SMILES","CASRN","RECORDID","MOLECULEID","EXTERNALID","N","NAME","NAME","INTRODUCER","MODIFIER","ARTICLEID","PUBMEDID","PAGE","TABLE","pKa (smiles as ob. cond.) {measured}","UNIT {pKa (smiles as ob. cond.)}","pKa (smiles as ob. cond.) {measured, converted}","UNIT {pKa (smiles as ob. cond.)}","Ionizable centre (smiles)","IC group detected","AtomNR of IC","groupsAndICs","IC smiles given","IC group given","Temperature","UNIT {Temperature}","MultiGroupDetection","COMMENTS","INCHI_KEY"
"CC(C)C1=CC=CC=N1","-","R946185","M23140","-","-","2-Isopropylpyridine","-","Koerner","charochkina","A5793","-","-","-","5.83","Log unit","5.83","Log unit","n1ccccc1C(C)C","0","","{n=[0]}","n(ccc1)c(c1)C(C)C","n","25.0","?C","","-","PFYPDUUXDADWKC-UHFFFAOYSA"
"CC(C)C1=CN=CC=C1","-","R946186","M90636","-","-","3-ISOPROPYLPYRIDINE","-","Koerner","charochkina","A5793","-","-","-","5.8","Log unit","5.8","Log unit","n1cccc(c1)C(C)C","0","","{n=[0]}","n(ccc1)cc1C(C)C","n","25.0","?C","","-","PUACTIIESPYWSI-UHFFFAOYSA"
"CC(C)C1=CC=NC=C1","-","R946187","M23346","-","-","4-Isopropylpyridine","-","Koerner","charochkina","A5793","-","-","-","6.02","Log unit","6.02","Log unit","n1ccc(C(C)C)cc1","0","","{n=[0]}","n(ccc1C(C)C)cc1","n","25.0","?C","","-","FRGXNJWEDDQLFH-UHFFFAOYSA"
"CNC1=CC=NC=C1C(C)C","-","R946188","M1106771","-","-","3-isopropyl-4-methylaminopyridine","-","Koerner","charochkina","A5793","-","-","-","9.98","Log unit","9.98","Log unit","n1ccc(NC)c(c1)C(C)C","0","","{n=[0], nr2=[4]}","n(ccc1NC)cc1C(C)C","n","25.0","?C","","-","JATMIUSJTMOXNC-UHFFFAOYSA"
"CC(C)C1=CN=CC=C1N(=O)=O","-","R946189","M1106772","-","-","3-isopropyl-4-nitropyridine","-","Koerner","charochkina","A5793","-","-","-","2.22","Log unit","2.22","Log unit","n1ccc(N(=O)=O)c(c1)C(C)C","0","","{n=[0], nr2=[4]}","n(ccc1N(=O)=O)cc1C(C)C","n","25.0","?C","","-","ZSEAMJCIFRPMGP-UHFFFAOYSA"
"SC1CCCC[NH2+]1","-","R946190","M1107285","-","-","2-Mercaptopyridine","-","Koerner","charochkina","A5793","-","-","-","-1.07","Log unit","-1.07","Log unit","SC1[NH2+][CH][CH][CH][CH]1","0","","{sh=[0]}","S-c([n+1]cc1)cc1","sh","25.0","?C","","-","SLCVWXCTLZGEPX-UHFFFAOYSA"
"[S-]C1=NC=CC=C1","-","R946191","M27215","-","-","2-Mercaptopyridine","-","Koerner","charochkina","A5793","-","-","-","9.8","Log unit","9.8","Log unit","n1c([S-])cccc1","2","","{n=[2]}","[S-1]-c(ncc1)cc1","n","25.0","?C","","-","WHMDPDGBKYUEMW-UHFFFAOYSA"
"[S-]C1=CN=CC=C1","-","R946192","M33769","-","-","3-Mercaptopyridine","-","Koerner","charochkina","A5793","-","-","-","7.03","Log unit","7.03","Log unit","n1cc([S-])ccc1","3","","{n=[3]}","[S-1]-c(cnc1)cc1","n","25.0","?C","","-","FFWJHVGUAKWTKW-UHFFFAOYSA"
"SC1CCC[NH2+]C1","-","R946193","M1107286","-","-","3-Mercaptopyridine","-","Koerner","charochkina","A5793","-","-","-","2.26","Log unit","2.26","Log unit","SC1[CH][NH2+][CH][CH][CH]1","0","","{sh=[0]}","S-c(c[n+1]c1)cc1","sh","25.0","?C","","-","CJZCQFMMGIXMNU-UHFFFAOYSA"
"SC1CC[NH2+]CC1","-","R946194","M1107287","-","-","4-Mercaptopyridine","-","Koerner","charochkina","A5793","-","-","-","1.455","Log unit","1.455","Log unit","SC1[CH][CH][NH2+][CH][CH]1","0","","{sh=[0]}","S-c(cc[n+1]1)cc1","sh","25.0","?C","","-","JCRXSDBBPCPECQ-UHFFFAOYSA"
"[S-]C1=CC=NC=C1","-","R946195","M29507","-","-","4-Mercaptopyridine","-","Koerner","charochkina","A5793","-","-","-","8.86","Log unit","8.86","Log unit","n1ccc([S-])cc1","4","","{n=[4]}","[S-1]-c(ccn1)cc1","n","25.0","?C","","-","FHTDDANQIMVWKZ-UHFFFAOYSA"
"COC1=CC=CC=N1","-","R946196","M25501","-","-","2-METHOXYPYRIDINE","-","Koerner","charochkina","A5793","-","-","-","3.25","Log unit","3.25","Log unit","n1ccccc1OC","0","","{n=[0]}","n(ccc1)c(c1)OC","n","25.0","?C","","-","IWTFOFMTUOBLHG-UHFFFAOYSA"
"COC1=CN=CC=C1","-","R946197","M31827","-","-","3-methoxy-pyridine","-","Koerner","charochkina","A5793","-","-","-","4.91","Log unit","4.91","Log unit","n1cccc(c1)OC","0","","{n=[0]}","n(ccc1)cc1OC","n","25.0","?C","","-","UMJSCPRVCHMLSP-UHFFFAOYSA"
"COC1=CC=NC=C1","-","R946198","M22623","-","-","4-methoxy-pyridine","-","Koerner","charochkina","A5793","-","-","-","6.51","Log unit","6.51","Log unit","n1ccc(OC)cc1","0","","{n=[0]}","n(ccc1OC)cc1","n","25.0","?C","","-","XQABVLBGNWBWIV-UHFFFAOYSA"
"COC(=O)C1=CC=CC=N1","-","R946199","M26923","-","-","2-METHOXYCARBONYLPYRIDINE","-","Koerner","charochkina","A5793","-","-","-","2.21","Log unit","2.21","Log unit","n1ccccc1C(=O)OC","0","","{n=[0]}","n(ccc1)c(c1)C(=O)OC","n","25.0","?C","","-","NMMIHXMBOZYNET-UHFFFAOYSA"
"COC1=C(C)C(=CN=C1)C1=CC=CC=C1","-","R946200","M1106773","-","-","3-methoxy-4-methyl-5-phenylpyridine","-","Koerner","charochkina","A5793","-","-","-","5.0","Log unit","5.0","Log unit","n1cc(c2ccccc2)c(c(c1)OC)C","6","","{n=[6]}","c(ccc1-c(cnc2)c(c2OC)C)cc1","n","25.0","?C","","-","XBXOBUBWNNRIGG-UHFFFAOYSA"
"COC(=O)C1=CC(OC)=CC(=N1)C(=O)OC","-","R946201","M1106774","-","-","4-methoxy-2,6-bis(methoxycarbonyl)pyridine","-","Koerner","charochkina","A5793","-","-","-","0.18","Log unit","0.18","Log unit","n1c(cc(OC)cc1C(=O)OC)C(=O)OC","0","","{n=[0]}","n(c(cc1OC)C(=O)OC)c(c1)C(=O)OC","n","25.0","?C","","-","NFIRNYBABWFVNL-UHFFFAOYSA"
"COC(=O)C1=CN=CC=C1","-","R946202","M13656","-","-","3-METHOXYCARBONYLPYRIDINE","-","Koerner","charochkina","A5793","-","-","-","3.13","Log unit","3.13","Log unit","n1cccc(c1)C(=O)OC","0","","{n=[0]}","n(ccc1)cc1C(=O)OC","n","25.0","?C","","-","YNBADRVTZLEFNH-UHFFFAOYSA"
"COC(=O)C1=CC=NC=C1","-","R946203","M8059","-","-","4-Methoxycarbonylpyridine","-","Koerner","charochkina","A5793","-","-","-","3.26","Log unit","3.26","Log unit","n1ccc(C(=O)OC)cc1","0","","{n=[0]}","n(ccc1C(=O)OC)cc1","n","25.0","?C","","-","OLXYLDUSSBULGU-UHFFFAOYSA"
"COC(=O)C1=C(N=C(OC)C=C1)C(=O)OC","-","R946204","M1106775","-","-","2-methoxy-5,6-di(methoxycarbonyl)pyridine","-","Koerner","charochkina","A5793","-","-","-","-2.27","Log unit","-2.27","Log unit","n1c(ccc(c1C(=O)OC)C(=O)OC)OC","0","","{n=[0]}","n(c(cc1)OC)c(c1C(=O)OC)C(=O)OC","n","25.0","?C","","-","HGVPDLQGKMLXAG-UHFFFAOYSA"
"COCC1=C(COC)N=C(OC)C=C1","-","R946205","M1106776","-","-","2-methoxy-5,6-di(methoxymethyl)pyridine","-","Koerner","charochkina","A5793","-","-","-","2.55","Log unit","2.55","Log unit","n1c(ccc(c1COC)COC)OC","0","","{n=[0]}","n(c(cc1)OC)c(c1COC)COC","n","25.0","?C","","-","GSLTWWVLHSJDFF-UHFFFAOYSA"
"COC1=CC=C(C)C(C)=N1","-","R946206","M1106777","-","-","2-methoxy-5,6-dimethylpyridine","-","Koerner","charochkina","A5793","-","-","-","4.86","Log unit","4.86","Log unit","n1c(c(ccc1OC)C)C","0","","{n=[0]}","n(c(c(c1)C)C)c(c1)OC","n","25.0","?C","","-","RXVIXYHMKNJSOH-UHFFFAOYSA"
"COC1=CC=C(CSC)C(CSC)=N1","-","R946207","M1106778","-","-","2-methoxy-5,6-di(methylthiomethyl)pyridine","-","Koerner","charochkina","A5793","-","-","-","2.64","Log unit","2.64","Log unit","n1c(CSC)c(ccc1OC)CSC","4","","{n=[4]}","S(C)C-c(nc(c1)OC)c(c1)CSC","n","25.0","?C","","-","ANXRCNGTRAILEU-UHFFFAOYSA"
"COC1=CC=C(C=CC2=CC=NC=C2)C=C1","-","R946208","M674394","-","-","trans-4-p-methoxystyryl-pyridine","-","Koerner","charochkina","A5793","-","-","-","6.03","Log unit","6.03","Log unit","n1ccc(C=Cc2ccc(OC)cc2)cc1","0","","{n=[0]}","n(ccc1C=C-c(ccc2OC)cc2)cc1","n","25.0","?C","","-","YOTHHWBAADYJST-UHFFFAOYSA"
"COC1=CC=C(C)C=N1","-","R946209","M1106779","-","-","2-methoxy-5-methylpyridine","-","Koerner","charochkina","A5793","-","-","-","3.73","Log unit","3.73","Log unit","n1cc(ccc1OC)C","0","","{n=[0]}","n(cc(c1)C)c(c1)OC","n","25.0","?C","","-","NFQGQMBFMIIIOR-UHFFFAOYSA"
"COC1=CC=NC=C1N(=O)=O","-","R946210","M1106780","-","-","4-methoxy-3-nitropyridine","-","Koerner","charochkina","A5793","-","-","-","2.62","Log unit","2.62","Log unit","n1ccc(OC)c(c1)N(=O)=O","0","","{n=[0], nr2=[8]}","n(ccc1OC)cc1N(=O)=O","n","25.0","?C","","-","BZPVREXVOZITPF-UHFFFAOYSA"
"CC1=CC=CC=N1","-","R946211","M1014","-","-","2-METHYLPYRIDINE","-","Koerner","charochkina","A5793","-","-","-","5.94","Log unit","5.94","Log unit","n1ccccc1C","0","","{n=[0]}","n(ccc1)c(c1)C","n","25.0","?C","","-","BSKHPKMHTQYZBB-UHFFFAOYSA"
"CC1=CN=CC=C1","-","R946212","M4670","-","-","3-methyl-pyridine","-","Koerner","charochkina","A5793","-","-","-","5.65","Log unit","5.65","Log unit","n1cccc(c1)C","0","","{n=[0]}","n(ccc1)cc1C","n","25.0","?C","","-","ITQTTZVARXURQS-UHFFFAOYSA"
"CC1=CC=NC=C1","-","R946213","M2669","-","-","4-methyl-pyridine","-","Koerner","charochkina","A5793","-","-","-","6.03","Log unit","6.03","Log unit","n1ccc(C)cc1","0","","{n=[0]}","n(ccc1C)cc1","n","25.0","?C","","-","FKNQCJSGGFJEIZ-UHFFFAOYSA"
"CN(C(C)=O)C1=CC=CC=N1","-","R946214","M1106781","-","-","2-(N-methylacetamido)pyridine","-","Koerner","charochkina","A5793","-","-","-","2.01","Log unit","2.01","Log unit","n1ccccc1N(C(=O)C)C","0","","{n=[0], nr2=[6]}","n(ccc1)c(c1)N(C(=O)C)C","n","25.0","?C","","-","BZZNKJYSPFIPGX-UHFFFAOYSA"
"CN(C(C)=O)C1=CN=CC=C1","-","R946215","M1106782","-","-","3-(N-methylacetamido)pyridine","-","Koerner","charochkina","A5793","-","-","-","3.52","Log unit","3.52","Log unit","n1cccc(c1)N(C(=O)C)C","0","","{n=[0], nr2=[6]}","n(ccc1)cc1N(C(=O)C)C","n","25.0","?C","","-","DIBVGDONZMMHTK-UHFFFAOYSA"
"CN(C(C)=O)C1=CC=NC=C1","-","R946216","M1106783","-","-","4-(N-methylacetamido)pyridine","-","Koerner","charochkina","A5793","-","-","-","4.62","Log unit","4.62","Log unit","n1ccc(N(C(=O)C)C)cc1","0","","{n=[0], nr2=[4]}","n(ccc1N(C(=O)C)C)cc1","n","25.0","?C","","-","MPBMBTVWEVCXNU-UHFFFAOYSA"
"CNC1=CC=NC=C1","-","R946217","M124462","-","-","4-Methylaminopyridine","-","Koerner","charochkina","A5793","-","-","-","9.65","Log unit","9.65","Log unit","n1ccc(NC)cc1","0","","{n=[0], nr2=[4]}","n(ccc1NC)cc1","n","25.0","?C","","-","LSCYTCMNCWMCQE-UHFFFAOYSA"
"CNCCC1=CC=CC=N1","-","R946218","M11388","-","-","2-(2-METHYLAMINOETHYL)PYRIDINE","-","Koerner","charochkina","A5793","-","-","-","9.715","Log unit","9.715","Log unit","N(CCc1ncccc1)C","8","","{n=[0], nr2=[8]}","n(ccc1)c(c1)CCNC","nr2","25.0","?C","","-","UUQMNUMQCIQDMZ-UHFFFAOYSA"
"C[NH2+]CCC1=CC=CC=N1","-","R946219","M11388","-","-","2-(2-METHYLAMINOETHYL)PYRIDINE","-","Koerner","charochkina","A5793","-","-","-","3.57","Log unit","3.57","Log unit","n1ccccc1CC[NH2+]C","0","","{n=[0]}","n(ccc1)c(c1)CC[N+1]C","n","25.0","?C","","-","UUQMNUMQCIQDMZ-UHFFFAOYSA"
"CNCC1=CC=CC=N1","-","R946220","M79962","-","-","2-methylaminomethylpyridine","-","Koerner","charochkina","A5793","-","-","-","9.200001","Log unit","9.200001","Log unit","N(Cc1ncccc1)C","7","","{n=[0], nr2=[7]}","n(ccc1)c(c1)CNC","nr2","25.0","?C","","-","OOTKJPZEEVPWCR-UHFFFAOYSA"
"C[NH2+]CC1=CC=CC=N1","-","R946221","M79962","-","-","2-methylaminomethylpyridine","-","Koerner","charochkina","A5793","-","-","-","2.9","Log unit","2.9","Log unit","n1ccccc1C[NH2+]C","0","","{n=[0]}","n(ccc1)c(c1)C[N+1]C","n","25.0","?C","","-","OOTKJPZEEVPWCR-UHFFFAOYSA"
"CC1=CN=CC=C1N(=O)=O","-","R946222","M1106784","-","-","3-methyl-4-nitropyridine","-","Koerner","charochkina","A5793","-","-","-","2.26","Log unit","2.26","Log unit","n1ccc(N(=O)=O)c(c1)C","0","","{n=[0], nr2=[4]}","n(ccc1N(=O)=O)cc1C","n","25.0","?C","","-","UYAWSMUOLFSNGC-UHFFFAOYSA"
"CN(C(=O)C1=CC=CC=C1)C1=CN=CC=C1","-","R946223","M1106785","-","-","3-(N-methylbenzamido)pyridine","-","Koerner","charochkina","A5793","-","-","-","3.66","Log unit","3.66","Log unit","n1cccc(c1)N(C(=O)c1ccccc1)C","0","","{n=[0], nr2=[6]}","n(ccc1)cc1N(C(=O)c(ccc2)cc2)C","n","25.0","?C","","-","QSAJIHDDFMPVMG-UHFFFAOYSA"
"CN(C(=O)C1=CC=CC=C1)C1=CC=NC=C1","-","R946224","M1106786","-","-","4-(N-methylbenzamido)pyridine","-","Koerner","charochkina","A5793","-","-","-","4.68","Log unit","4.68","Log unit","n1ccc(N(C(=O)c2ccccc2)C)cc1","0","","{n=[0], nr2=[4]}","n(ccc1N(C(=O)c(ccc2)cc2)C)cc1","n","25.0","?C","","-","WWGQDQUDHWBLAX-UHFFFAOYSA"
"CNC1=CC=NC=C1C","-","R946225","M1106787","-","-","3-methyl-4-methylaminopyridine","-","Koerner","charochkina","A5793","-","-","-","9.84","Log unit","9.84","Log unit","n1ccc(NC)c(c1)C","0","","{n=[0], nr2=[4]}","n(ccc1NC)cc1C","n","25.0","?C","","-","HSOBREMHIAAEND-UHFFFAOYSA"
"CC1=CC(=NC=C1)C1=CC(C)=CC=N1","-","R946226","M24716","-","-","4-METHYL-2,2'-(4-METHYLPYRIDYL)PYRIDINE","-","Koerner","charochkina","A5793","-","-","-","5.02","Log unit","5.02","Log unit","n1ccc(C)cc1c1nccc(c1)C","0","","{n=[0, 8]}","n(ccc1C)c(c1)c(ncc2)cc2C","n","25.0","?C","true","-","NBPGPQJFYXNFKN-UHFFFAOYSA"
"CS(=O)(=O)C1=NC=CC=C1","-","R946227","M1106788","-","-","2-methylsulphonylpyridine","-","Koerner","charochkina","A5793","-","-","-","-1.5","Log unit","-1.5","Log unit","n1c(S(=O)(=O)C)cccc1","0","","{n=[0]}","n1c(S(=O)(=O)C)cccc1","n","25.0","?C","","-","PCLKVJBRTCQNDU-UHFFFAOYSA"
"CC(C)(C)C1=NC=CC=C1","-","R946028","M30768","-","-","2-Bromopyridine","-","Koerner","charochkina","A5793","-","-","-","5.78","Log unit","5.78","Log unit","n1c(C(C)(C)C)cccc1","0","","{n=[0]}","n1c(C(C)(C)C)cccc1","n","25.0","?C","","-","UUIMDJFBHNDZOW-UHFFFAOYSA"
"BrC1=CN=CC=C1","-","R946029","M7692","-","-","3-bromo-pyridine","-","Koerner","charochkina","A5793","-","-","-","2.875","Log unit","2.875","Log unit","n1cc(Br)ccc1","3","","{n=[3]}","Br-c(cnc1)cc1","n","25.0","?C","","-","NYPYPOZNGOXYSU-UHFFFAOYSA"
"BrC1=CC=NC=C1","-","R946030","M1008","-","-","4-bromo-pyridine","-","Koerner","charochkina","A5793","-","-","-","3.78","Log unit","3.78","Log unit","n1ccc(Br)cc1","4","","{n=[4]}","Br-c(ccn1)cc1","n","25.0","?C","","-","BSDGZUDFPKIYQG-UHFFFAOYSA"
"COC1=CC(Br)=CN=C1","-","R946031","M1106738","-","-","3-bromo-5-methoxypyridine","-","Koerner","charochkina","A5793","-","-","-","2.6","Log unit","2.6","Log unit","n1cc(Br)cc(c1)OC","3","","{n=[3]}","Br-c(cnc1)cc1OC","n","25.0","?C","","-","FZWUIWQMJFAWJW-UHFFFAOYSA"
"COC1=NC=C(Br)C=C1","-","R946032","M108843","-","-","5-Bromo-2-methoxypyridine","-","Koerner","charochkina","A5793","-","-","-","1.14","Log unit","1.14","Log unit","n1cc(Br)ccc1OC","3","","{n=[3]}","Br-c(cnc1OC)cc1","n","25.0","?C","","-","XADICJHFELMBGX-UHFFFAOYSA"
"CN(C)C1=CC=NC=C1Br","-","R946033","M1106739","-","-","3-bromo-4-dimethylaminopyridine","-","Koerner","charochkina","A5793","-","-","-","6.53","Log unit","6.53","Log unit","n1cc(Br)c(cc1)N(C)C","3","","{n=[3], nr2=[7]}","Br-c(cnc1)c(c1)N(C)C","n","25.0","?C","","-","FPSWXPXRLCSGIV-UHFFFAOYSA"
"CNC1=CC=NC=C1Br","-","R946034","M124454","-","-","3-BROMO-4-METHYLAMINOPYRIDINE","-","Koerner","charochkina","A5793","-","-","-","7.49","Log unit","7.49","Log unit","n1cc(Br)c(cc1)NC","3","","{n=[3], nr2=[7]}","Br-c(cnc1)c(c1)NC","n","25.0","?C","","-","CDKSEZAZZNDVCY-UHFFFAOYSA"
"CC(C)(C)C1=CC=CC=N1","-","R946035","M30768","-","-","2-T-BUTYLPYRIDINE","-","Koerner","charochkina","A5793","-","-","-","5.76","Log unit","5.76","Log unit","n1ccccc1C(C)(C)C","0","","{n=[0]}","n(ccc1)c(c1)C(C)(C)C","n","25.0","?C","","-","UUIMDJFBHNDZOW-UHFFFAOYSA"
"CC(C)(C)C1=CN=CC=C1","-","R946036","M124459","-","-","3-T-BUTYLPYRIDINE","-","Koerner","charochkina","A5793","-","-","-","5.82","Log unit","5.82","Log unit","n1cccc(c1)C(C)(C)C","0","","{n=[0]}","n(ccc1)cc1C(C)(C)C","n","25.0","?C","","-","FBUIIWHYTLCORM-UHFFFAOYSA"
"CC(C)(C)C1=CC=NC=C1","-","R946037","M28886","-","-","4-T-BUTYLPYRIDINE","-","Koerner","charochkina","A5793","-","-","-","5.99","Log unit","5.99","Log unit","n1ccc(C(C)(C)C)cc1","0","","{n=[0]}","n(ccc1C(C)(C)C)cc1","n","25.0","?C","","-","YSHMQTRICHYLGF-UHFFFAOYSA"
"NC(=O)C1=CC=CC=N1","-","R946038","M25159","-","-","2-Carbamoylpyridine","-","Koerner","charochkina","A5793","-","-","-","2.1","Log unit","2.1","Log unit","n1ccccc1C(=O)N","0","","{n=[0], nr2=[8]}","n(ccc1)c(c1)C(=O)N","n","25.0","?C","","-","IBBMAWULFFBRKK-UHFFFAOYSA"
"NC(=O)C1=CN=CC=C1","-","R946039","M1928","-","-","3-Carbamoylpyridine","-","Koerner","charochkina","A5793","-","-","-","3.339","Log unit","3.339","Log unit","n1cccc(c1)C(=O)N","0","","{n=[0], nr2=[8]}","n(ccc1)cc1C(=O)N","n","25.0","?C","","-","DFPAKSUCGFBDDF-UHFFFAOYSA"
"NC(=O)C1=CC=NC=C1","-","R946040","M25163","-","-","4-Carbamoylpyridine","-","Koerner","charochkina","A5793","-","-","-","3.61","Log unit","3.61","Log unit","n1ccc(C(=O)N)cc1","0","","{n=[0], nr2=[6]}","n(ccc1C(=O)N)cc1","n","25.0","?C","","-","VFQXVTODMYMSMJ-UHFFFAOYSA"
"OC(=O)C1CCCC[NH2+]1","-","R946041","M21385","-","-","2-Carboxypyridine","-","Koerner","charochkina","A5793","-","-","-","1.0","Log unit","1.0","Log unit","OC(=O)C1[NH2+][CH][CH][CH][CH]1","8","","{co2h=[8]}","[n+1](ccc1)c(c1)C(=O)O","co2h","25.0","?C","","-","HXEACLLIILLPRG-UHFFFAOYSA"
"OC(=O)C1CCC[NH2+]C1","-","R946042","M20929","-","-","3-Carboxypyridine","-","Koerner","charochkina","A5793","-","-","-","2.03","Log unit","2.03","Log unit","OC(=O)C1[CH][NH2+][CH][CH][CH]1","8","","{co2h=[8]}","[n+1](ccc1)cc1C(=O)O","co2h","25.0","?C","","-","XJLSEXAGTJCILF-UHFFFAOYSA"
"OC(=O)C1CC[NH2+]CC1","-","R946043","M20928","-","-","4-Carboxypyridine","-","Koerner","charochkina","A5793","-","-","-","1.755","Log unit","1.755","Log unit","OC(=O)C1[CH][CH][NH2+][CH][CH]1","6","","{co2h=[6]}","[n+1](ccc1C(=O)O)cc1","co2h","25.0","?C","","-","SRJOCJYGOFTFLH-UHFFFAOYSA"
"CC1CCCC([NH2+]1)C(O)=O","-","R946044","M1018108","-","-","2-Carboxy-6-methylpyridine","-","Koerner","charochkina","A5793","-","-","-","0.9","Log unit","0.9","Log unit","OC(=O)C1[NH2+]C([CH][CH][CH]1)C","9","","{co2h=[9]}","[n+1](c(cc1)C)c(c1)C(=O)O","co2h","25.0","?C","","-","IHLDCUQUFBWSJU-UHFFFAOYSA"
"CC1=NC(=CC=C1)C([O-])=O","-","R946045","M68190","-","-","2-Carboxy-6-methylpyridine","-","Koerner","charochkina","A5793","-","-","-","5.8","Log unit","5.8","Log unit","n1c(cccc1C(=O)[O-])C","0","","{n=[0]}","n(c(cc1)C)c(c1)C(=O)[O-1]","n","25.0","?C","","-","LTUUGSGSUZRPRV-UHFFFAOYSA"
"ClC1=NC=CC=C1","-","R946046","M8017","-","-","2-chloropyridine","-","Koerner","charochkina","A5793","-","-","-","0.605","Log unit","0.605","Log unit","n1c(Cl)cccc1","2","","{n=[2]}","Cl-c(ncc1)cc1","n","25.0","?C","","-","OKDGRDCXVWSXDC-UHFFFAOYSA"
"ClC1=CN=CC=C1","-","R946047","M8880","-","-","3-chloro-pyridine","-","Koerner","charochkina","A5793","-","-","-","2.84","Log unit","2.84","Log unit","n1cc(Cl)ccc1","3","","{n=[3]}","Cl-c(cnc1)cc1","n","25.0","?C","","-","PWRBCZZQRRPXAB-UHFFFAOYSA"
"ClC1=CC=NC=C1","-","R946048","M22832","-","-","4-chloro-pyridine","-","Koerner","charochkina","A5793","-","-","-","3.84","Log unit","3.84","Log unit","n1ccc(Cl)cc1","4","","{n=[4]}","Cl-c(ccn1)cc1","n","25.0","?C","","-","PVMNPAUTCMBOMO-UHFFFAOYSA"
"CN(C)CCC(C1=CC=C(Cl)C=C1)C1=NC=CC=C1","-","R946049","M10538","-","-","2-[p-chloro-alpha(2-dimethylaminoethyl)benzyl]-pyridine","-","Koerner","charochkina","A5793","-","-","-","9.16","Log unit","9.16","Log unit","N(CCC(c1ccc(Cl)cc1)c1ncccc1)(C)C","14","","{n=[7], nr2=[14]}","Cl-c(ccc1C(c(ncc2)cc2)CCN(C)C)cc1","nr2","25.0","?C","","-","SOYKEARSMXGVTM-UHFFFAOYSA"
"[O-]C1=CC(Cl)=NC=C1","-","R946050","M117035","-","-","2-chloro-4-hydroxypyridine","-","Koerner","charochkina","A5793","-","-","-","6.84","Log unit","6.84","Log unit","n1c(Cl)cc(cc1)[O-]","2","","{n=[2]}","Cl-c(ncc1)cc1[O-1]","n","25.0","?C","","-","VBEHFOMFHUQAOW-UHFFFAOYSA"
"OC1CC[NH2+]C(Cl)C1","-","R946051","M1107278","-","-","2-chloro-4-hydroxypyridine","-","Koerner","charochkina","A5793","-","-","-","2.07","Log unit","2.07","Log unit","OC1[CH]C(Cl)[NH2+][CH][CH]1","7","","{oh=[7]}","Cl-c([n+1]cc1)cc1O","oh","25.0","?C","","-","BRHNWFGXNNGUTI-UHFFFAOYSA"
"[O-]C1=NC=C(Cl)C=C1","-","R946052","M73947","-","-","5-Chloro-2-hydroxypyridine","-","Koerner","charochkina","A5793","-","-","-","10.03","Log unit","10.03","Log unit","n1cc(Cl)ccc1[O-]","3","","{n=[3]}","Cl-c(cnc1[O-1])cc1","n","25.0","?C","","-","SZFUWUOHDRMCKD-UHFFFAOYSA"
"OC1CCC(Cl)C[NH2+]1","-","R946053","M1107279","-","-","5-Chloro-2-hydroxypyridine","-","Koerner","charochkina","A5793","-","-","-","0.01","Log unit","0.01","Log unit","OC1[NH2+][CH]C(Cl)[CH][CH]1","5","","{oh=[5]}","Cl-c(c[n+1]c1O)cc1","oh","25.0","?C","","-","UYPCRNJXOLDQCN-UHFFFAOYSA"