Smiles,CASRN,Record ID,Molecule ID,External ID,N,Name,Introducer,Modifer,Article ID,PUBMED ID,PAGE,TABLE,pKa,pKa Unit,Temperature,Temperature Unit,Ionizable center smiles,IC group
OC(=O)C(=C)[As](O)(O)=O,-,R1205209,M1050622,-,-,alpha-arson-acrylic acid,Koerner,charochkina,A5793,-,-,-,3.3,Log unit,25,?C,OC(=O)C(=C)[As](=O)(O)O,aso2h
OC(=O)C(=C)[As](O)([O-])=O,-,R1205210,M1050622,-,-,alpha-arson-acrylic acid,Koerner,charochkina,A5793,-,-,-,4.23,Log unit,25,?C,[O-][As](=O)(O)C(=C)C(=O)O,co2h
CC=C(C(O)=O)[As](O)(O)=O,-,R1205212,M1050623,-,-,alpha-arson-crotonic acid,Koerner,charochkina,A5793,-,-,-,3.65,Log unit,25,?C,OC(=O)C(=CC)[As](=O)(O)O,aso2h
CC=C(C(O)=O)[As](O)([O-])=O,-,R1205213,M1050623,-,-,alpha-arson-crotonic acid,Koerner,charochkina,A5793,-,-,-,4.6,Log unit,25,?C,[O-][As](=O)(O)C(=CC)C(=O)O,co2h
CC(=CC(O)=O)[As](O)(O)=O,-,R1205215,M1050624,-,-,beta-arson-crotonic acid,Koerner,charochkina,A5793,-,-,-,3.5,Log unit,25,?C,OC(=O)C=C([As](=O)(O)O)C,aso2h
NC1=C(C=CC=C1)[As](O)([O-])=O,-,R1205235,M70599,-,-,o-Aminophenylarsonic acid,Koerner,charochkina,A5793,-,-,-,4.1,Log unit,25,?C,[O-][As](=O)(O)c1c(N)cccc1,nr2
NC1=CC=C(C=C1)[As](O)([O-])=O,-,R1205239,M18244,-,-,p-Aminophenylarsonic acid,Koerner,charochkina,A5793,-,-,-,4.4,Log unit,25,?C,[O-][As](=O)(O)c1ccc(N)cc1,nr2
OC1=CC=C(C=C1)N=NC1=CC=C(C=C1)[As](O)([O-])=O,-,R1205256,M1050632,-,-,4-(4-hydrxyphenylazo)phenylarsonic acid,Koerner,charochkina,A5793,-,-,-,7.6,Log unit,25,?C,Oc1ccc(N=Nc2ccc(cc2)[As](=O)(O)[O-])cc1,aso2h
NCC(N)=O,-,R1205323,M67089,-,-,C-amino-C-carbamoylmethane,Koerner,charochkina,A5793,-,-,-,7.94,Log unit,25,?C,NCC(=O)N,4
NCC(=O)NN,-,R1205324,M399083,-,-,C-amino-C-hydrazinocarbonylmethane,Koerner,charochkina,A5793,-,-,-,7.69,Log unit,25,?C,NCC(=O)NN,6
[O-]S(=O)(=O)NS([O-])(=O)=O,-,R1205326,M1157760,-,-,182 Aminodisulphonic acid,Koerner,charochkina,A5793,-,-,-,8.5,Log unit,25,?C,N(S(=O)(=O)[O-])S(=O)(=O)[O-],nr2
CNCC(N)=O,-,R1205327,M1157761,-,-,C-carbamoyl-C-methylaminomethane,Koerner,charochkina,A5793,-,-,-,8.31,Log unit,25,?C,N(CC(=O)N)C,4
NNC(=O)CC#N,-,R1205330,M19540,-,-,C-cyano-C-hydrazinocarbonylmethane,Koerner,charochkina,A5793,-,-,-,2.32,Log unit,25,?C,NNC(=O)CC#N,4
CNCC(=O)N(C)C,-,R1205333,M1157762,-,-,"N,N-dimethylcarbamoyl-C-methylaminomethane",Koerner,charochkina,A5793,-,-,-,8.82,Log unit,25,?C,N(CC(=O)N(C)C)C,3
CC(=O)NN,-,R1205334,M7876,-,-,hydrazinocarbonylmethane,Koerner,charochkina,A5793,-,-,-,3.24,Log unit,25,?C,NNC(=O)C,4
CNCC(=O)NC,-,R1205339,M110650,-,-,C-methylamino-(N-methyl)carbamoylmethane,Koerner,charochkina,A5793,-,-,-,8.24,Log unit,25,?C,N(CC(=O)NC)C,4
CC(=O)NCCN,-,R1205340,M1155499,-,-,1-acetamido-2-aminoethane,Koerner,charochkina,A5793,-,-,-,9.15,Log unit,25,?C,NCCNC(=O)C,4
NCCOCC[NH2+],-,R1205345,M1157763,-,-,1-amino-2-(2-amino)ethoxyethane,Koerner,charochkina,A5793,-,-,-,8.9,Log unit,25,?C,NCCOCC[NH2+],nr2
NCCNCCN,-,R1205346,M18768,-,-,1-amino-2-(2-aminoethyl)aminoethane,Koerner,charochkina,A5793,-,-,-,9.7,Log unit,25,?C,NCCNCCN,4
NCCNCC[NH2+],-,R1205347,M1157764,-,-,1-amino-2-(2-aminoethyl)aminoethane,Koerner,charochkina,A5793,-,-,-,9.5,Log unit,25,?C,NCCNCC[NH2+],4
[NH2+]CCNCC[NH2+],-,R1205348,M1157765,-,-,1-amino-2-(2-aminoethyl)aminoethane,Koerner,charochkina,A5793,-,-,-,4.6,Log unit,25,?C,N(CC[NH2+])CC[NH2+],nr2
NCCNC(=O)C1=CC=CC=C1,-,R1205349,M24334,-,-,1-amino-2-benzamidoethane,Koerner,charochkina,A5793,-,-,-,9.13,Log unit,25,?C,NCCNC(=O)c1ccccc1,3
NCCNCC1=CC=CC=C1,-,R1205354,M73849,-,-,1-amino-2benzylaminoethane,Koerner,charochkina,A5793,-,-,-,9.6,Log unit,25,?C,NCCNCc1ccccc1,3
NCCN(CCN)CCN,-,R1205356,M28986,-,-,"1-amino-2-(2,2'-bisaminoethyl)aminoethane",Koerner,charochkina,A5793,-,-,-,9.6,Log unit,25,?C,NCCN(CCN)CCN,4
NCCN(CCN)CC[NH2+],-,R1205357,M1157766,-,-,"1-amino-2-(2,2'-bisaminoethyl)aminoethane",Koerner,charochkina,A5793,-,-,-,9.44,Log unit,25,?C,NCCN(CC[NH2+])CCN,4
NCCN(CC[NH2+])CC[NH2+],-,R1205358,M1157767,-,-,"1-amino-2-(2,2'-bisaminoethyl)aminoethane",Koerner,charochkina,A5793,-,-,-,7.9,Log unit,25,?C,NCCN(CC[NH2+])CC[NH2+],3
CCCCNCCN,-,R1205360,M1106965,-,-,1-amino-2-butylaminoethane,Koerner,charochkina,A5793,-,-,-,10.3,Log unit,25,?C,N(CCN)CCCC,4
CC(N)C(N)=O,-,R1205362,M1157768,-,-,1-amino-1-carbamoyl-ethane,Koerner,charochkina,A5793,-,-,-,8.02,Log unit,25,?C,NC(C(=O)N)C,4
CCN(CC)CCN,-,R1205364,M18320,-,-,1-AMINO-2-DIETHYLAMINOETHANE,Koerner,charochkina,A5793,-,-,-,9.975,Log unit,25,?C,N(CCN)(CC)CC,3
CC[N+](CC)CCN,-,R1205365,M1157769,-,-,1-AMINO-2-DIETHYLAMINOETHANE,Koerner,charochkina,A5793,-,-,-,7.4,Log unit,25,?C,NCC[N+](CC)CC,nr2
CN(C)CCN,-,R1205366,M18639,-,-,1-amino-2-dimethylaminoethane,Koerner,charochkina,A5793,-,-,-,9.53,Log unit,25,?C,NCCN(C)C,3
C[N+](C)CCN,-,R1205367,M1157770,-,-,1-amino-2-dimethylaminoethane,Koerner,charochkina,A5793,-,-,-,6.6,Log unit,25,?C,NCC[N+](C)C,nr2
CN(C)NC(N)C(F)(F)F,-,R1205368,M1157771,-,-,1-amino-1-dimethylhydrazono-2-trifluoroethane,Koerner,charochkina,A5793,-,-,-,3.97,Log unit,25,?C,NC(C(F)(F)F)NN(C)C,3
NCCOCCSCCN,-,R1205369,M1106966,-,-,1-(2-amino)ethoxy-2-(2-amino)ethylthioethane,Koerner,charochkina,A5793,-,-,-,9.16,Log unit,25,?C,NCCOCCSCCN,4
NCCOCCSCC[NH2+],-,R1205370,M1157772,-,-,1-(2-amino)ethoxy-2-(2-amino)ethylthioethane,Koerner,charochkina,A5793,-,-,-,8.8,Log unit,25,?C,NCCOCCSCC[NH2+],nr2
CCNCCN,-,R1205371,M18738,-,-,1-amino-2-ethylaminoethane,Koerner,charochkina,A5793,-,-,-,10.26,Log unit,25,?C,N(CCN)CC,nr2
NCCNCCNCCNCCN,-,R1205373,M18830,-,-,1-(2-aminoethyl)amino-2-[2-(2-aminoethyl)-aminoethyl]aminoethane,Koerner,charochkina,A5793,-,-,-,9.62,Log unit,25,?C,NCCNCCNCCNCCN,6
NCCNCCNCCNCC[NH2+],-,R1205374,M1157773,-,-,1-(2-aminoethyl)amino-2-[2-(2-aminoethyl)-aminoethyl]aminoethane,Koerner,charochkina,A5793,-,-,-,9.38,Log unit,25,?C,NCCNCCNCCNCC[NH2+],8
[NH2+]CCNCCNCCNCC[NH2+],-,R1205375,M1157774,-,-,1-(2-aminoethyl)amino-2-[2-(2-aminoethyl)-aminoethyl]aminoethane,Koerner,charochkina,A5793,-,-,-,7.87,Log unit,25,?C,N(CCNCCNCC[NH2+])CC[NH2+],5
[NH2+]CCNCC[NH2+]CCNCC[NH2+],-,R1205376,M1157774,-,-,1-(2-aminoethyl)amino-2-[2-(2-aminoethyl)-aminoethyl]aminoethane,Koerner,charochkina,A5793,-,-,-,4.55,Log unit,25,?C,N(CC[NH2+]CCNCC[NH2+])CC[NH2+],nr2
[NH2+]CCNCC[NH2+]CC[NH2+]CC[NH2+],-,R1205377,M1157774,-,-,1-(2-aminoethyl)amino-2-[2-(2-aminoethyl)-aminoethyl]aminoethane,Koerner,charochkina,A5793,-,-,-,2.95,Log unit,25,?C,N(CC[NH2+])CC[NH2+]CC[NH2+]CC[NH2+],nr2
NCCNCCO,-,R1205380,M18769,-,-,1-amino-2-(2-hydroxyethyl)aminoethane,Koerner,charochkina,A5793,-,-,-,9.8,Log unit,25,?C,N(CCO)CCN,4
CC(O)CNCCN,-,R1205382,M19176,-,-,1-amino-2-(2-hydroxypropyl)amionethane,Koerner,charochkina,A5793,-,-,-,9.56,Log unit,25,?C,N(CC(O)C)CCN,5
NCCNCCCO,-,R1205384,M1106967,-,-,1-amino-2-(3-hydroxypropyl)aminoethane,Koerner,charochkina,A5793,-,-,-,9.67,Log unit,25,?C,N(CCCO)CCN,4
CC(C)NCCN,-,R1205386,M118265,-,-,1-amino-2-isopropylaminoethane,Koerner,charochkina,A5793,-,-,-,10.62,Log unit,25,?C,N(CCN)C(C)C,4
[NH2+]CCS,-,R1205388,M1157775,-,-,1-amino-2-mercaptoethane,Koerner,charochkina,A5793,-,-,-,8.35,Log unit,25,?C,SCC[NH2+],sh
CNCCN,-,R1205391,M18702,-,-,1-amino-2-methylaminoethane,Koerner,charochkina,A5793,-,-,-,10.15,Log unit,25,?C,N(CCN)C,3
CNCC[NH2+],-,R1205392,M1157776,-,-,1-amino-2-methylaminoethane,Koerner,charochkina,A5793,-,-,-,6.86,Log unit,25,?C,N(CC[NH2+])C,nr2
CC1=CC=C(CNCCN)C=C1,-,R1205393,M1106968,-,-,1-amino-2-(p-methyl)benzylaminoethane,Koerner,charochkina,A5793,-,-,-,9.41,Log unit,25,?C,NCCNCc1ccc(cc1)C,4
CC1=CC=C(CNCC[NH2+])C=C1,-,R1205394,M1157777,-,-,1-amino-2-(p-methyl)benzylaminoethane,Koerner,charochkina,A5793,-,-,-,6.51,Log unit,25,?C,N(Cc1ccc(cc1)C)CC[NH2+],nr2
CCCNCCN,-,R1205398,M65417,-,-,1-amino-2-propylaminoethane,Koerner,charochkina,A5793,-,-,-,10.34,Log unit,25,?C,N(CCN)CCC,4
NCCOCCOCC[NH2+],-,R1205405,M1157778,-,-,"1,2-bis(2-amino)ethoxyethane",Koerner,charochkina,A5793,-,-,-,9.17,Log unit,25,?C,NCCOCCOCC[NH2+],nr2
NCCNCCNCCN,-,R1205406,M18809,-,-,"1,2-bis(2-aminoethyl)aminoethane",Koerner,charochkina,A5793,-,-,-,9.6,Log unit,25,?C,NCCNCCNCCN,5
NCCNCCNCC[NH2+],-,R1205407,M1157779,-,-,"1,2-bis(2-aminoethyl)aminoethane",Koerner,charochkina,A5793,-,-,-,9.5,Log unit,25,?C,NCCNCCNCC[NH2+],6
[NH2+]CCNCCNCC[NH2+],-,R1205408,M1157780,-,-,"1,2-bis(2-aminoethyl)aminoethane",Koerner,charochkina,A5793,-,-,-,6.3,Log unit,25,?C,N(CCNCC[NH2+])CC[NH2+],nr2
[NH2+]CCNCC[NH2+]CC[NH2+],-,R1205409,M1157780,-,-,"1,2-bis(2-aminoethyl)aminoethane",Koerner,charochkina,A5793,-,-,-,3.6,Log unit,25,?C,N(CC[NH2+]CC[NH2+])CC[NH2+],nr2
NCCSCCSCC[NH2+],-,R1205411,M1157781,-,-,"1,2-bis(2-aminoethyl)thioethane",Koerner,charochkina,A5793,-,-,-,8.9,Log unit,25,?C,NCCSCCSCC[NH2+],nr2
CCN(CC)CC[N+](CC)CC,-,R1205419,M1157782,-,-,"1,2-bisdiethylaminoethane",Koerner,charochkina,A5793,-,-,-,6.9,Log unit,25,?C,N(CC)(CC)CC[N+](CC)CC,nr2
CC(O)CN(CC[N+](CC(C)O)CC(C)O)CC(C)O,-,R1205421,M1157783,-,-,"1,2-bis(di-2-hydroxypropylamino)ethane",Koerner,charochkina,A5793,-,-,-,4.6,Log unit,25,?C,N(CC[N+](CC(O)C)CC(O)C)(CC(O)C)CC(O)C,nr2
CN(C)CC[N+](C)C,-,R1205424,M1157784,-,-,"1,2-bisdimethylaminoethane",Koerner,charochkina,A5793,-,-,-,6,Log unit,25,?C,N(CC[N+](C)C)(C)C,nr2
CN(C)CCN(C)CCN(C)CCN(C)C,-,R1205425,M27805,-,-,"1,2-bis(2-dimethylamino)ethylmethylaminoethane",Koerner,charochkina,A5793,-,-,-,8.9,Log unit,25,?C,N(CCN(C)C)(C)CCN(C)CCN(C)C,1
CN(C)CCN(C)CCN(C)CC[N+](C)C,-,R1205426,M1157785,-,-,"1,2-bis(2-dimethylamino)ethylmethylaminoethane",Koerner,charochkina,A5793,-,-,-,8.5,Log unit,25,?C,N(CCN(CCN(CC[N+](C)C)C)C)(C)C,3
CN(CCN(C)CC[N+](C)C)CC[N+](C)C,-,R1205427,M1157786,-,-,"1,2-bis(2-dimethylamino)ethylmethylaminoethane",Koerner,charochkina,A5793,-,-,-,5.1,Log unit,25,?C,N(CCN(CC[N+](C)C)C)(C)CC[N+](C)C,nr2
NCC(=O)NCCNC(=O)CN,-,R1205430,M1157787,-,-,"1,2-bisglycylamidoethane",Koerner,charochkina,A5793,-,-,-,8.05,Log unit,25,?C,NCC(=O)NCCNC(=O)CN,5
NCC[NH2+],-,R1205450,M1157788,-,-,"1,2-diamino-ethane",Koerner,charochkina,A5793,-,-,-,7.1,Log unit,25,?C,NCC[NH2+],nr2
CCN(CC)CCOCC[N+](CC)CC,-,R1205452,M1157789,-,-,1-diethylamino-2-diethylaminoethoxyethane,Koerner,charochkina,A5793,-,-,-,8.6,Log unit,25,?C,N(CCOCC[N+](CC)CC)(CC)CC,nr2
CCN(CC)CCOCC[N+](C)C,-,R1205453,M1157790,-,-,1-diethylamino-2-dimethylaminoethoxyethane,Koerner,charochkina,A5793,-,-,-,8.38,Log unit,25,?C,N(CCOCC[N+](C)C)(CC)CC,nr2
CCN(C)CCOCCN(CC)CC,-,R1205455,M1106983,-,-,1-diethylamino-2-ethylmethylaminoethoxyethane,Koerner,charochkina,A5793,-,-,-,9.8,Log unit,25,?C,N(CCOCCN(CC)C)(CC)CC,2
CCN(C)CCOCC[N+](CC)CC,-,R1205456,M1157791,-,-,1-diethylamino-2-ethylmethylaminoethoxyethane,Koerner,charochkina,A5793,-,-,-,8.76,Log unit,25,?C,N(CCOCC[N+](CC)CC)(CC)C,nr2
CN(C)CCOCC[N+](C)C,-,R1205460,M1157792,-,-,1-dimethylamino-2-dimethylaminoethoxyethane,Koerner,charochkina,A5793,-,-,-,8.49,Log unit,25,?C,N(CCOCC[N+](C)C)(C)C,nr2
CN(C)CCN(C)CCN(C)C,-,R1205461,M27732,-,-,1-dimethylamino-2-(2-dimethylamino)ethylmethylaminoethane,Koerner,charochkina,A5793,-,-,-,9,Log unit,25,?C,N(CCN(CCN(C)C)C)(C)C,nr2
CCN(C)CCOCCN(C)C,-,R1205463,M1157793,-,-,1-dimethylamino-2-ethylmethylaminoethoxyethane,Koerner,charochkina,A5793,-,-,-,9.32,Log unit,25,?C,N(CCOCCN(C)C)(C)CC,1
CCN(C)CCOCC[N+](C)C,-,R1205464,M1157794,-,-,1-dimethylamino-2-ethylmethylaminoethoxyethane,Koerner,charochkina,A5793,-,-,-,8.24,Log unit,25,?C,N(CCOCC[N+](C)C)(C)CC,1
[NH2+]CCOP(O)([O-])=O,-,R1205473,M1157795,-,-,2-Aminoethyl dihydrogen phosphate,Koerner,charochkina,A5793,-,-,-,5.8,Log unit,25,?C,OP(=O)([O-])OCC[NH2+],po2h
CN(C)CCSCC[N+](C)C,-,R1205478,M1157796,-,-,bisdimethylaminoethyl sulphide,Koerner,charochkina,A5793,-,-,-,8.3,Log unit,25,?C,N(CCSCC[N+](C)C)(C)C,nr2
NCCSSCC[NH2+],-,R1205480,M1157797,-,-,"2,2'-diaminodiethyl disulphide",Koerner,charochkina,A5793,-,-,-,9.1,Log unit,25,?C,NCCSSCC[NH2+],nr2
NCCSCC[NH2+],-,R1205482,M1157798,-,-,"2,2'-diaminodiethyl sulphide",Koerner,charochkina,A5793,-,-,-,9.14,Log unit,25,?C,NCCSCC[NH2+],nr2
NCCCNCCCN,-,R1205487,M17139,-,-,1-amino-3-(3-aminopropyl)aminopropane,Koerner,charochkina,A5793,-,-,-,10.1,Log unit,25,?C,NCCCNCCCN,4
NCCCNCCC[NH2+],-,R1205488,M1157799,-,-,1-amino-3-(3-aminopropyl)aminopropane,Koerner,charochkina,A5793,-,-,-,9.7,Log unit,25,?C,N(CCC[NH2+])CCCN,4
[NH2+]CCCNCCC[NH2+],-,R1205489,M1157800,-,-,1-amino-3-(3-aminopropyl)aminopropane,Koerner,charochkina,A5793,-,-,-,7.9,Log unit,25,?C,N(CCC[NH2+])CCC[NH2+],nr2
CN(CCCN)CCCN,-,R1205490,M18551,-,-,1-amino-3-(3-aminoproplylmethyl)aminopropane,Koerner,charochkina,A5793,-,-,-,9.8,Log unit,25,?C,NCCCN(CCCN)C,nr2
CN(CCCN)CCC[NH2+],-,R1205491,M1157801,-,-,1-amino-3-(3-aminoproplylmethyl)aminopropane,Koerner,charochkina,A5793,-,-,-,9.4,Log unit,25,?C,N(CCC[NH2+])(C)CCCN,3
CN(CCC[NH2+])CCC[NH2+],-,R1205492,M1157802,-,-,1-amino-3-(3-aminoproplylmethyl)aminopropane,Koerner,charochkina,A5793,-,-,-,6.5,Log unit,25,?C,N(CCC[NH2+])(C)CCC[NH2+],nr2
CCN(CC)CCC[N+](CC)CC,-,R1205517,M1157803,-,-,"1,3-bisdiethylaminopropane",Koerner,charochkina,A5793,-,-,-,8.5,Log unit,25,?C,N(CCC[N+](CC)CC)(CC)CC,nr2
CCN(CC)CC(O)C[N+](CC)CC,-,R1205519,M1157804,-,-,"1,3-bisdiethylamino-2-hydroxypropane",Koerner,charochkina,A5793,-,-,-,7.44,Log unit,25,?C,N(CC(O)C[N+](CC)CC)(CC)CC,nr2
CC(CN(C)C)N(C)C,-,R1205520,M123045,-,-,"1,2-bisdimethylaminopropane",Koerner,charochkina,A5793,-,-,-,9.19,Log unit,25,?C,N(C(CN(C)C)C)(C)C,nr2
CN(C)CCC[N+](C)C,-,R1205522,M1157805,-,-,"1,3-bisdimethylaminopropane",Koerner,charochkina,A5793,-,-,-,8,Log unit,25,?C,N(CCC[N+](C)C)(C)C,nr2
CC(O)CN(CCCN(C)C)CC(C)O,-,R1205524,M93866,-,-,1-(bis-2-hydroxypropyl)amino-3-dimethylaminopropane,Koerner,charochkina,A5793,-,-,-,8.9,Log unit,25,?C,N(CC(O)C)(CC(O)C)CCCN(C)C,3
CC(O)CN(CCC[N+](C)C)CC(C)O,-,R1205525,M1157806,-,-,1-(bis-2-hydroxypropyl)amino-3-dimethylaminopropane,Koerner,charochkina,A5793,-,-,-,6.8,Log unit,25,?C,N(CC(O)C)(CC(O)C)CCC[N+](C)C,nr2
CC(N)CN,-,R1205534,M333,-,-,"1,2-diamino-propane",Koerner,charochkina,A5793,-,-,-,9.985001,Log unit,25,?C,NC(CN)C,nr2
OC(=O)C1=C(C=C(C=C1)C([O-])=O)C([O-])=O,-,R1204045,M21275,-,-,"Benzene-1,2,4-tricarboxylic acid",Koerner,charochkina,A5793,-,-,-,4.9,Log unit,25,?C,[O-]C(=O)c1ccc(c(C(=O)[O-])c1)C(=O)O,co2h
OC(=O)C1=CC=CC(C([O-])=O)=C1C([O-])=O,-,R1204048,M21826,-,-,"1,2,3-Benzenetricarboxylic acid",Koerner,charochkina,A5793,-,-,-,4.85,Log unit,25,?C,[O-]C(=O)c1cccc(c1C(=O)[O-])C(=O)O,co2h
OC(=O)C1=C(C(O)=O)C(C(O)=O)=C(C=C1)C(O)=O,-,R1204049,M20703,-,-,"Benzene-1,2,3,4-tetracarboxylic acid",Koerner,charochkina,A5793,-,-,-,2.35,Log unit,25,?C,OC(=O)c1ccc(c(C(=O)O)c1C(=O)O)C(=O)O,1
OC(=O)C1=C(C(O)=O)C(C([O-])=O)=C(C=C1)C(O)=O,-,R1204050,M20703,-,-,"Benzene-1,2,3,4-tetracarboxylic acid",Koerner,charochkina,A5793,-,-,-,2.9,Log unit,25,?C,OC(=O)c1ccc(c(C(=O)[O-])c1C(=O)O)C(=O)O,3
OC(=O)C1=C(C=CC(C([O-])=O)=C1C([O-])=O)C([O-])=O,-,R1204052,M20703,-,-,"Benzene-1,2,3,4-tetracarboxylic acid",Koerner,charochkina,A5793,-,-,-,5.8,Log unit,25,?C,[O-]C(=O)c1ccc(c(c1C(=O)[O-])C(=O)O)C(=O)[O-],co2h
OC(=O)C1=CC(C(O)=O)=C(C=C1C([O-])=O)C(O)=O,-,R1204054,M17901,-,-,"1,2,4,5-Benzenetetracarboxylic acid",Koerner,charochkina,A5793,-,-,-,3,Log unit,25,?C,OC(=O)c1c(cc(c(c1)C(=O)[O-])C(=O)O)C(=O)O,3
OC(=O)C1=CC(C([O-])=O)=C(C=C1C([O-])=O)C(O)=O,-,R1204055,M17901,-,-,"1,2,4,5-Benzenetetracarboxylic acid",Koerner,charochkina,A5793,-,-,-,4.6,Log unit,25,?C,[O-]C(=O)c1cc(c(cc1C(=O)O)C(=O)[O-])C(=O)O,co2h
OC(=O)C1=C(C=C(C([O-])=O)C(=C1)C([O-])=O)C([O-])=O,-,R1204056,M17901,-,-,"1,2,4,5-Benzenetetracarboxylic acid",Koerner,charochkina,A5793,-,-,-,5.3,Log unit,25,?C,[O-]C(=O)c1c(cc(c(c1)C(=O)O)C(=O)[O-])C(=O)[O-],co2h
OC(=O)C1=CC(C(O)=O)=C(C(O)=O)C(C(O)=O)=C1C(O)=O,-,R1204057,M25411,-,-,benzene-pentacarboxylic acid,Koerner,charochkina,A5793,-,-,-,2.3,Log unit,25,?C,OC(=O)c1c(cc(c(c1C(=O)O)C(=O)O)C(=O)O)C(=O)O,1
OC(=O)C1=C(C(O)=O)C(C([O-])=O)=C(C(O)=O)C(=C1)C([O-])=O,-,R1204059,M25411,-,-,benzene-pentacarboxylic acid,Koerner,charochkina,A5793,-,-,-,3.5,Log unit,25,?C,OC(=O)c1cc(c(c(C(=O)[O-])c1C(=O)O)C(=O)O)C(=O)[O-],3
OC(=O)C1=C(C([O-])=O)C(C(O)=O)=C(C=C1C([O-])=O)C([O-])=O,-,R1204060,M25411,-,-,benzene-pentacarboxylic acid,Koerner,charochkina,A5793,-,-,-,5.5,Log unit,25,?C,[O-]C(=O)c1c(c(cc(c1C(=O)O)C(=O)[O-])C(=O)[O-])C(=O)O,co2h
OC(=O)C1=C(C=C(C([O-])=O)C(C([O-])=O)=C1C([O-])=O)C([O-])=O,-,R1204061,M25411,-,-,benzene-pentacarboxylic acid,Koerner,charochkina,A5793,-,-,-,6,Log unit,25,?C,[O-]C(=O)c1c(c(cc(c1C(=O)O)C(=O)[O-])C(=O)[O-])C(=O)[O-],co2h
OC(=O)C1=C(C([O-])=O)C(C([O-])=O)=C(C([O-])=O)C(C([O-])=O)=C1C([O-])=O,-,R1204062,M21164,-,-,373 440 benzenehexacarboxylic acid,Koerner,charochkina,A5793,-,-,-,6.17,Log unit,25,?C,[O-]C(=O)c1c(C(=O)[O-])c(C(=O)[O-])c(C(=O)[O-])c(C(=O)[O-])c1C(=O)O,co2h
OC(=O)C1=C(C(O)=O)C(C(O)=O)=C(C(O)=O)C(C(O)=O)=C1C(O)=O,-,R1204063,M21164,-,-,371 440 benzenehexacarboxylic acid,Koerner,charochkina,A5793,-,-,-,2.18,Log unit,25,?C,OC(=O)c1c(c(c(c(C(=O)O)c1C(=O)O)C(=O)O)C(=O)O)C(=O)O,co2h
OC(=O)C1=C(C(O)=O)C(C(O)=O)=C(C([O-])=O)C(C(O)=O)=C1C(O)=O,-,R1204064,M21164,-,-,371 440 benzenehexacarboxylic acid,Koerner,charochkina,A5793,-,-,-,2.6,Log unit,25,?C,OC(=O)c1c(c(c(c(C(=O)[O-])c1C(=O)O)C(=O)O)C(=O)O)C(=O)O,3
OC(=O)C1=C(C(O)=O)C(C([O-])=O)=C(C(O)=O)C(C([O-])=O)=C1C(O)=O,-,R1204065,M21164,-,-,371 440 benzenehexacarboxylic acid,Koerner,charochkina,A5793,-,-,-,3.2,Log unit,25,?C,OC(=O)c1c(c(c(c(C(=O)[O-])c1C(=O)O)C(=O)O)C(=O)[O-])C(=O)O,3
OC(=O)C1=C(C([O-])=O)C(C(O)=O)=C(C([O-])=O)C(C(O)=O)=C1C([O-])=O,-,R1204066,M21164,-,-,372 440 benzenehexacarboxylic acid,Koerner,charochkina,A5793,-,-,-,4.66,Log unit,25,?C,OC(=O)c1c(c(c(C(=O)[O-])c(c1C(=O)[O-])C(=O)O)C(=O)O)C(=O)[O-],co2h
OC(=O)C1=C(C([O-])=O)C(C([O-])=O)=C(C([O-])=O)C(C(O)=O)=C1C([O-])=O,-,R1204067,M21164,-,-,372 440 benzenehexacarboxylic acid,Koerner,charochkina,A5793,-,-,-,5.4,Log unit,25,?C,[O-]C(=O)c1c(c(c(c(c1C(=O)[O-])C(=O)O)C(=O)[O-])C(=O)O)C(=O)[O-],co2h
OC1=CC=C(C=C1O)C([O-])=O,-,R1204092,M18287,-,-,"3,4-dihydroxy-benzoic acid",Koerner,charochkina,A5793,-,-,-,9,Log unit,25,?C,Oc1c(O)ccc(C(=O)[O-])c1,2
OC1=CC(=CC=C1[O-])C([O-])=O,-,R1204093,M18287,-,-,"3,4-dihydroxy-benzoic acid",Koerner,charochkina,A5793,-,-,-,12.6,Log unit,25,?C,[O-]c1ccc(C(=O)[O-])cc1O,oh
OC1=CC(=CC(O)=C1O)C([O-])=O,-,R1204097,M6312,-,-,gallic acid,Koerner,charochkina,A5793,-,-,-,8.68,Log unit,25,?C,Oc1c(O)cc(cc1O)C(=O)[O-],2
OC1=CC(=CC(O)=C1[O-])C([O-])=O,-,R1204098,M6312,-,-,gallic acid,Koerner,charochkina,A5793,-,-,-,12.7,Log unit,25,?C,Oc1c(c(O)cc(c1)C(=O)[O-])[O-],oh
OC(=O)CCCC(C(O)=O)(C1=CC=CC=C1)C1=CC=CC=C1,-,R1204179,M46916,-,-,"alpha,alpha-diphenyladipic acid",Koerner,charochkina,A5793,-,-,-,4.47,Log unit,25,?C,OC(=O)CCCC(c1ccccc1)(c1ccccc1)C(=O)O,co2h
OC(=O)CC(C(CC(O)=O)C1=CC=CC=C1)C1=CC=CC=C1,-,R1204180,M1050328,-,-,"beta,beta'-diphenyladipic acid",Koerner,charochkina,A5793,-,-,-,4.545,Log unit,25,?C,OC(=O)CC(c1ccccc1)C(c1ccccc1)CC(=O)O,co2h
OC(=O)CCCCC(C(O)=O)(C1=CC=CC=C1)C1=CC=CC=C1,-,R1204181,M47160,-,-,"alpha,alpha-diphenylpimelic acid",Koerner,charochkina,A5793,-,-,-,4.58,Log unit,25,?C,OC(=O)CCCCC(c1ccccc1)(c1ccccc1)C(=O)O,co2h
[NH2+]C(CC1=CC=CC=C1)C(O)=O,-,R1204218,M1157739,-,-,Phenylalanine,Koerner,charochkina,A5793,-,-,-,2.16,Log unit,25,?C,OC(=O)C(Cc1ccccc1)[NH2+],co2h
[NH2+]C(CC1=CC=CC=C1F)C(O)=O,-,R1204234,M1157740,-,-,o-Fluorophenylalanine,Koerner,charochkina,A5793,-,-,-,2.12,Log unit,25,?C,OC(=O)C(Cc1c(F)cccc1)[NH2+],co2h
[NH2+]C(CC1=CC(F)=CC=C1)C(O)=O,-,R1204236,M1157741,-,-,m-Fluorophenylalanine,Koerner,charochkina,A5793,-,-,-,2.1,Log unit,25,?C,OC(=O)C(Cc1cc(F)ccc1)[NH2+],co2h
[NH2+]C(CC1=CC=C(F)C=C1)C(O)=O,-,R1204238,M1157742,-,-,p=fluorophenylalanine,Koerner,charochkina,A5793,-,-,-,2.13,Log unit,25,?C,OC(=O)C(Cc1ccc(F)cc1)[NH2+],co2h
[NH2+]C(CC1=CC=CC=C1Cl)C(O)=O,-,R1204240,M1157743,-,-,O-Chlorophenylalanine,Koerner,charochkina,A5793,-,-,-,2.23,Log unit,25,?C,OC(=O)C(Cc1c(Cl)cccc1)[NH2+],co2h
[NH2+]C(CC1=CC(Cl)=CC=C1)C(O)=O,-,R1204242,M1157744,-,-,m-chlorophenylalanine,Koerner,charochkina,A5793,-,-,-,2.17,Log unit,25,?C,OC(=O)C(Cc1cc(Cl)ccc1)[NH2+],co2h
[NH2+]C(CC1=CC=C(Cl)C=C1)C(O)=O,-,R1204244,M1157745,-,-,P-CHLOROPHENYLALANINE,Koerner,charochkina,A5793,-,-,-,2.08,Log unit,25,?C,OC(=O)C(Cc1ccc(Cl)cc1)[NH2+],co2h