Smiles,CASRN,Record ID,Molecule ID,External ID,N,Name,Introducer,Modifer,Article ID,PUBMED ID,PAGE,TABLE,pKa,pKa Unit,Temperature,Temperature Unit,Ionizable center smiles,IC group
C1=CC2=C(C=C1)N=CC=C2,-,R946403,M10490,-,-,Quinoline,Koerner,charochkina,A5793,-,-,-,4.925,Log unit,25,?C,n1cccc2c1cccc2,0
CS(=O)(=O)C1=NC=CC2=C1C=CC=C2,-,R946404,M1106880,-,-,1-methylsulphonylisoquinoline,Koerner,charochkina,A5793,-,-,-,-0.83,Log unit,25,?C,n1c(S(=O)(=O)C)c2ccccc2cc1,5
CC(=O)C1=CC=C(O)C2=C1C=CC=N2,-,R946405,M49651,-,-,5-acetyl-8-hydroxyquinoline,Koerner,charochkina,A5793,-,-,-,4.385,Log unit,25,?C,n1cccc2c1c(ccc2C(=O)C)O,0
CC(=O)C1=CC=C(O)C2=C1C=CC=N2,-,R946406,M49651,-,-,5-acetyl-8-hydroxyquinoline,Koerner,charochkina,A5793,-,-,-,8.2,Log unit,25,?C,Oc1c2ncccc2c(cc1)C(=O)C,8
NC1=NC2=C(C=CC=C2)C=C1,-,R946407,M3092,-,-,2-aminoquinoline,Koerner,charochkina,A5793,-,-,-,7.17,Log unit,25,?C,n1c(ccc2c1cccc2)N,0
NC1=CC2=C(C=CC=C2)N=C1,-,R946408,M10697,-,-,3-aminoquinoline,Koerner,charochkina,A5793,-,-,-,4.91,Log unit,25,?C,n1cc(cc2c1cccc2)N,0
NC1=CC=NC2=C1C=CC=C2,-,R946409,M2842,-,-,4-aminoquinoline,Koerner,charochkina,A5793,-,-,-,9.13,Log unit,25,?C,n1ccc(N)c2c1cccc2,0
NC1=CC=CC2=C1C=CC=N2,-,R946410,M13057,-,-,5-Aminoquinoline,Koerner,charochkina,A5793,-,-,-,5.345,Log unit,25,?C,n1cccc2c1cccc2N,0
NC1=CC2=C(C=C1)N=CC=C2,-,R946411,M9793,-,-,6-Aminoquinoline,Koerner,charochkina,A5793,-,-,-,5.52,Log unit,25,?C,n1cccc2c1ccc(N)c2,0
NC1=CC2=C(C=CC=N2)C=C1,-,R946412,M120613,-,-,7-Aminoquinoline,Koerner,charochkina,A5793,-,-,-,6.61,Log unit,25,?C,n1cccc2c1cc(cc2)N,0
NC1=CC=CC2=C1N=CC=C2,-,R946413,M12544,-,-,8-Aminoquinoline,Koerner,charochkina,A5793,-,-,-,4,Log unit,25,?C,n1cccc2c1c(ccc2)N,0
NC1=CC=NC2=CC(Cl)=CC=C12,-,R946414,M108546,-,-,4-AMINO-7-CHLOROQUINOLINE,Koerner,charochkina,A5793,-,-,-,8.23,Log unit,25,?C,n1c2cc(Cl)ccc2c(cc1)N,10
NC1=CC=NC2=C1C=CC=C2O,-,R946415,M1107303,-,-,4-amino-8-hydroxyquinoline,Koerner,charochkina,A5793,-,-,-,10.71,Log unit,25,?C,Oc1c2nccc(N)c2ccc1,9
NC1=CC=C(O)C2=C1C=CC=N2,-,R946416,M32813,-,-,5-amino-8-hydroxyquinoline,Koerner,charochkina,A5793,-,-,-,5.67,Log unit,25,?C,n1cccc2c1c(ccc2N)O,0
COC1=CC2=C(C=C1)N=CC=C2N,-,R946417,M1106881,-,-,4-amino-6-methoxyquinoline,Koerner,charochkina,A5793,-,-,-,8.93,Log unit,25,?C,n1ccc(N)c2c1ccc(OC)c2,0
CC1=NC2=CC=CC=C2C(N)=C1,-,R946418,M31357,-,-,4-Amino-2-methylquinoline,Koerner,charochkina,A5793,-,-,-,9.42,Log unit,25,?C,n1c2ccccc2c(cc1C)N,9
CC1=CC2=C(N=C(C)C=C2N)C(C)=C1,-,R946419,M1106882,-,-,"4-amino-2,6,8-trimethylquinoline",Koerner,charochkina,A5793,-,-,-,10.4,Log unit,25,?C,n1c(cc(N)c2c1c(cc(C)c2)C)C,0
BrC1=NC2=C(C=CC=C2)C=C1,-,R946420,M1106883,-,-,2-bromoquinoline,Koerner,charochkina,A5793,-,-,-,1.05,Log unit,25,?C,n1c(Br)ccc2c1cccc2,2
BrC1=CN=C2C=CC=CC2=C1,-,R946421,M14106,-,-,3-Bromoquinoline,Koerner,charochkina,A5793,-,-,-,2.72,Log unit,25,?C,n1cc(Br)cc2c1cccc2,3
BrC1=CC=CC2=C1C=CC=N2,-,R946422,M1106884,-,-,5-bromoquinoline,Koerner,charochkina,A5793,-,-,-,3.62,Log unit,25,?C,n1c2c(c(Br)ccc2)ccc1,10
BrC1=CC=C2N=CC=CC2=C1,-,R946423,M4364,-,-,6-Bromoquinoline,Koerner,charochkina,A5793,-,-,-,3.91,Log unit,25,?C,n1c2ccc(Br)cc2ccc1,5
BrC1=CC=C2C=CC=NC2=C1,-,R946424,M13324,-,-,7-Bromoquinoline,Koerner,charochkina,A5793,-,-,-,3.87,Log unit,25,?C,n1c2cc(Br)ccc2ccc1,9
BrC1=CC=CC2=C1N=CC=C2,-,R946425,M746953,-,-,8-Bromoquinoline,Koerner,charochkina,A5793,-,-,-,3.13,Log unit,25,?C,n1c2c(Br)cccc2ccc1,6
ClC1=CC=NC2=CC=C(Br)C=C12,-,R946426,M1106885,-,-,6-bromo-4-chloroquinoline,Koerner,charochkina,A5793,-,-,-,2.83,Log unit,25,?C,n1c2ccc(Br)cc2c(Cl)cc1,5
ClC1=CC=NC2=CC(Br)=CC=C12,-,R946427,M1106886,-,-,7-bromo-4-chloroquinoline,Koerner,charochkina,A5793,-,-,-,2.83,Log unit,25,?C,n1c2cc(Br)ccc2c(Cl)cc1,10
CS(=O)(=O)C1=CC=NC=C1,-,R946228,M1106789,-,-,4-methylsulphonylpyridine,Koerner,charochkina,A5793,-,-,-,1.62,Log unit,25,?C,n1ccc(S(=O)(=O)C)cc1,7
CSC1=NC=CC=C1,-,R946229,M34447,-,-,2-METHYLTHIOPYRIDINE,Koerner,charochkina,A5793,-,-,-,3.59,Log unit,25,?C,n1c(SC)cccc1,3
CSC1=CN=CC=C1,-,R946230,M124458,-,-,3-METHYLTHIOPYRIDINE,Koerner,charochkina,A5793,-,-,-,4.42,Log unit,25,?C,n1cc(SC)ccc1,4
CSC1=CC=NC=C1,-,R946231,M124471,-,-,4-METHYLTHIOPYRIDINE,Koerner,charochkina,A5793,-,-,-,5.94,Log unit,25,?C,n1ccc(SC)cc1,5
CC1=CC=C(C=C)C=N1,-,R946232,M19536,-,-,2-METHYL-5-VINYLPYRIDINE,Koerner,charochkina,A5793,-,-,-,5.67,Log unit,25,?C,n1cc(ccc1C)C=C,0
CSCC1=NC=CC=C1,-,R946233,M1106790,-,-,2-methylthiomethylpyridine,Koerner,charochkina,A5793,-,-,-,4.64,Log unit,25,?C,n1c(CSC)cccc1,4
CSC1=NC=C(C=C1)N(=O)=O,-,R946234,M1106791,-,-,2-methylthio-5-nitropyridine,Koerner,charochkina,A5793,-,-,-,-0.29,Log unit,25,?C,n1c(SC)ccc(c1)N(=O)=O,3
O=N(=O)C1=CN=CC=C1,-,R946235,M9228,-,-,3-Nitropyridine,Koerner,charochkina,A5793,-,-,-,1.18,Log unit,25,?C,n1cccc(c1)N(=O)=O,0
O=N(=O)C1=CC(=CC=C1)C1=CC=CC=N1,-,R946236,M1106792,-,-,2-meta-nitrophenylpyridine,Koerner,charochkina,A5793,-,-,-,3.55,Log unit,25,?C,n1ccccc1c1cccc(c1)N(=O)=O,0
O=N(=O)C1=CC=C(C=C1)C1=CC=CC=N1,-,R946237,M1106793,-,-,2-para-nitrophenylpyridine,Koerner,charochkina,A5793,-,-,-,3.63,Log unit,25,?C,n1ccccc1c1ccc(N(=O)=O)cc1,0
OC(=O)C1C([NH2+]C(C(C1C([O-])=O)C(O)=O)C([O-])=O)C([O-])=O,-,R946238,M1107288,-,-,pentacarboxypyridine,Koerner,charochkina,A5793,-,-,-,3.76,Log unit,25,?C,OC(=O)C1C([NH2+]C(C(C1C(=O)[O-])C(=O)O)C(=O)[O-])C(=O)[O-],8
OC(=O)C1=C(N=C(C([O-])=O)C(C([O-])=O)=C1C([O-])=O)C([O-])=O,-,R946239,M1107289,-,-,pentacarboxypyridine,Koerner,charochkina,A5793,-,-,-,4.61,Log unit,25,?C,OC(=O)c1c(c(c(nc1C(=O)[O-])C(=O)[O-])C(=O)[O-])C(=O)[O-],16
CC(=O)C1=CC=C(C=C1)C1=NC=CC=C1,-,R946240,M1106794,-,-,2-phenacylpyridine,Koerner,charochkina,A5793,-,-,-,5,Log unit,25,?C,n1c(c2ccc(C(=O)C)cc2)cccc1,0
CC(=O)C1=CC=C(C=C1)C1=CC=CN=C1,-,R946241,M1106795,-,-,3-phenacylpyridine,Koerner,charochkina,A5793,-,-,-,4.87,Log unit,25,?C,n1cc(c2ccc(C(=O)C)cc2)ccc1,0
CC(=O)C1=CC=C(C=C1)C1=CC=NC=C1,-,R946242,M1106796,-,-,4-phenacylpyridine,Koerner,charochkina,A5793,-,-,-,4.93,Log unit,25,?C,n1ccc(c2ccc(C(=O)C)cc2)cc1,0
CCCCCC1=CC=CC=N1,-,R946243,M71008,-,-,2-PENTYLPYRIDINE,Koerner,charochkina,A5793,-,-,-,6,Log unit,25,?C,n1ccccc1CCCCC,0
C1=CC=C(C=C1)C1=CC=CC=N1,-,R946244,M11901,-,-,2-Phenylpyridine,Koerner,charochkina,A5793,-,-,-,4.48,Log unit,25,?C,n1ccccc1c1ccccc1,0
O=S(=O)(CC1=NC=CC=C1)C1=CC=CC=C1,-,R946245,M1106797,-,-,2-phenylsulphonylmethylpyridine,Koerner,charochkina,A5793,-,-,-,2.54,Log unit,25,?C,n1c(CS(=O)(=O)c2ccccc2)cccc1,0
O=S(=O)(CC1=CN=CC=C1)C1=CC=CC=C1,-,R946246,M855796,-,-,3-phenylsulphonylmethylpyridine,Koerner,charochkina,A5793,-,-,-,3.67,Log unit,25,?C,n1cccc(c1)CS(=O)(=O)c1ccccc1,0
O=S(=O)(CC1=CC=NC=C1)C1=CC=CC=C1,-,R946247,M1106798,-,-,4-phenylsulphonylmethylpyridine,Koerner,charochkina,A5793,-,-,-,3.75,Log unit,25,?C,n1ccc(CS(=O)(=O)c2ccccc2)cc1,0
C1=CC=C(C=C1)N=NC1=CC=CC=N1,-,R946248,M1106799,-,-,2-phenylazopyridine,Koerner,charochkina,A5793,-,-,-,2,Log unit,25,?C,n1ccccc1N=Nc1ccccc1,0
C(CC1=CC=CC=N1)N1CCCCC1,-,R946249,M30341,-,-,2-(piperidinoethyl)pyridine,Koerner,charochkina,A5793,-,-,-,9.29,Log unit,25,?C,N1(CCc2ncccc2)CCCCC1,8
C(CC1=CC=CC=N1)[NH+]1CCCCC1,-,R946250,M30341,-,-,2-(piperidinoethyl)pyridine,Koerner,charochkina,A5793,-,-,-,3.59,Log unit,25,?C,n1ccccc1CC[NH+]1CCCCC1,0
C(CC1=CN=CC=C1)N1CCCCC1,-,R946251,M32949,-,-,3-(piperidinoethyl)pyridine,Koerner,charochkina,A5793,-,-,-,8.81,Log unit,25,?C,N1(CCc2cnccc2)CCCCC1,8
C(CC1=CN=CC=C1)[NH+]1CCCCC1,-,R946252,M32949,-,-,3-(piperidinoethyl)pyridine,Koerner,charochkina,A5793,-,-,-,4.25,Log unit,25,?C,n1cccc(c1)CC[NH+]1CCCCC1,0
C(CC1=CC=NC=C1)N1CCCCC1,-,R946253,M32950,-,-,4-(piperidinoethyl)pyridine,Koerner,charochkina,A5793,-,-,-,9.06,Log unit,25,?C,N1(CCc2ccncc2)CCCCC1,6
C(CC1=CC=NC=C1)[NH+]1CCCCC1,-,R946254,M32950,-,-,4-(piperidinoethyl)pyridine,Koerner,charochkina,A5793,-,-,-,4.7,Log unit,25,?C,n1ccc(CC[NH+]2CCCCC2)cc1,0
C(N1CCCCC1)C1=CC=CC=N1,-,R946255,M1107290,-,-,2-(piperidinomethyl)pyridine,Koerner,charochkina,A5793,-,-,-,8.51,Log unit,25,?C,N1(Cc2ncccc2)CCCCC1,7
C(N1CCCCC1)C1=CN=CC=C1,-,R946256,M33007,-,-,3-(piperidinomethyl)pyridine,Koerner,charochkina,A5793,-,-,-,8.3,Log unit,25,?C,N1(Cc2cnccc2)CCCCC1,7
C(N1CCCCC1)C1=CC=NC=C1,-,R946257,M1107291,-,-,4-(piperidinomethyl)pyridine,Koerner,charochkina,A5793,-,-,-,7.88,Log unit,25,?C,N1(Cc2ccncc2)CCCCC1,5
CCCC1=CC=CC=N1,-,R946258,M22690,-,-,2-n-Propylpyridine,Koerner,charochkina,A5793,-,-,-,5.97,Log unit,25,?C,n1ccccc1CCC,0
CCCC1=CC=NC=C1,-,R946259,M4865,-,-,4-n-Propylpyridine,Koerner,charochkina,A5793,-,-,-,6.05,Log unit,25,?C,n1ccc(CCC)cc1,0
C1=CN=C(C=C1)C1=CC=CC=N1,-,R946260,M9907,-,-,2-(2-Pyridyl)pyridine,Koerner,charochkina,A5793,-,-,-,3.95,Log unit,25,?C,n1ccccc1c1ncccc1,0
C1CCC([NH2+]C1)C1=NC=CC=C1,-,R946261,M1059072,-,-,2-(2-Pyridyl)pyridine,Koerner,charochkina,A5793,-,-,-,-0.2,Log unit,25,?C,n1c(C2[NH2+][CH][CH][CH][CH]2)cccc1,7
C1=CN=C(C=C1)C1=CN=CC=C1,-,R946262,M21908,-,-,2-(3-pyridyl)pyridine,Koerner,charochkina,A5793,-,-,-,4.12,Log unit,25,?C,n1cccc(c1)c1ncccc1,0
C1C[NH2+]CC(C1)C1=NC=CC=C1,-,R946263,M1106800,-,-,2-(3-pyridyl)pyridine,Koerner,charochkina,A5793,-,-,-,1.82,Log unit,25,?C,n1c(C2[CH][NH2+][CH][CH][CH]2)cccc1,7
C1=CN=C(C=C1)C1=CC=NC=C1,-,R946264,M21906,-,-,2-(4-pyridyl)pyridine,Koerner,charochkina,A5793,-,-,-,4.37,Log unit,25,?C,n1ccc(c2ncccc2)cc1,0
C(CC1=CC=CC=N1)N1CCCC1,-,R946265,M124451,-,-,2-[2-(N-PYRROLIDINYL)ETHYL]PYRIDINE,Koerner,charochkina,A5793,-,-,-,9.39,Log unit,25,?C,N1(CCc2ncccc2)CCCC1,8
C(CC1=CN=CC=C1)N1CCCC1,-,R946266,M34925,-,-,3-[2-(N-PYRROLIDINYL)ETHYL]PYRIDINE,Koerner,charochkina,A5793,-,-,-,9.28,Log unit,25,?C,N1(CCc2cnccc2)CCCC1,8
C(CC1=CC=NC=C1)N1CCCC1,-,R946267,M124472,-,-,4-[2-(N-PYRROLIDINYL)ETHYL]PYRIDINE,Koerner,charochkina,A5793,-,-,-,9.27,Log unit,25,?C,N1(CCc2ccncc2)CCCC1,6
C(N1CCCC1)C1=CC=CC=N1,-,R946268,M124434,-,-,2-(1-PYRROLIDINYLMETHYL)PYRIDINE,Koerner,charochkina,A5793,-,-,-,8.56,Log unit,25,?C,N1(Cc2ncccc2)CCCC1,7
C(N1CCCC1)C1=CN=CC=C1,-,R946269,M20238,-,-,3-(1-Pyrrolidinylmethyl)pyridine,Koerner,charochkina,A5793,-,-,-,8.36,Log unit,25,?C,N1(Cc2cnccc2)CCCC1,7
C(N1CCCC1)C1=CC=NC=C1,-,R946270,M124460,-,-,4-(1-PYRROLIDINYLMETHYL)PYRIDINE,Koerner,charochkina,A5793,-,-,-,8.16,Log unit,25,?C,N1(Cc2ccncc2)CCCC1,5
[O-]S(=O)(=O)C1=NC=CC=C1,-,R946271,M1106801,-,-,2-sulphopyridine,Koerner,charochkina,A5793,-,-,-,1.75,Log unit,25,?C,n1c(S(=O)(=O)[O-])cccc1,5
[O-]S(=O)(=O)C1=CN=CC=C1,-,R946272,M23053,-,-,3-sulphopyridine,Koerner,charochkina,A5793,-,-,-,2.9,Log unit,25,?C,n1cc(S(=O)(=O)[O-])ccc1,6
[O-]S(=O)(=O)C1=CC=NC=C1,-,R946273,M1106802,-,-,4-sulphopyridine,Koerner,charochkina,A5793,-,-,-,3.44,Log unit,25,?C,n1ccc(S(=O)(=O)[O-])cc1,7
CC1=CC(C)=C(C)N=C1C,-,R946274,M28657,-,-,"2,3,5,6-TETRAMETHYLPYRIDINE",Koerner,charochkina,A5793,-,-,-,7.9,Log unit,25,?C,n1c(c(cc(c1C)C)C)C,0
CNC1=C(C)C(C)=NC(C)=C1C,-,R946275,M1106803,-,-,"2,3,5,6-tetramethyl-4-methylaminopyridine",Koerner,charochkina,A5793,-,-,-,10.07,Log unit,25,?C,n1c(c(c(NC)c(c1C)C)C)C,0
BrC1=C(Br)C(Br)=C(Br)N=C1,-,R946276,M1106804,-,-,"2,3,4,5-tetrabromopyridine",Koerner,charochkina,A5793,-,-,-,-2.47,Log unit,25,?C,n1c(c(Br)c(Br)c(c1)Br)Br,4
OC(=O)C1CC(C([NH2+]C1C([O-])=O)C([O-])=O)C(O)=O,-,R946277,M1107292,-,-,"2,3,5,6-tetracarboxypyridine",Koerner,charochkina,A5793,-,-,-,2.84,Log unit,25,?C,OC(=O)C1C([NH2+]C(C([CH]1)C(=O)O)C(=O)[O-])C(=O)[O-],8
OC(=O)C1CC(C([NH2+]C1C([O-])=O)C([O-])=O)C([O-])=O,-,R946278,M1107292,-,-,"2,3,5,6-tetracarboxypyridine",Koerner,charochkina,A5793,-,-,-,3.86,Log unit,25,?C,OC(=O)C1[CH]C(C([NH2+]C1C(=O)[O-])C(=O)[O-])C(=O)[O-],13
OC(=O)C1=C(N=C(C([O-])=O)C(=C1)C([O-])=O)C([O-])=O,-,R946279,M1036572,-,-,"2,3,5,6-tetracarboxypyridine",Koerner,charochkina,A5793,-,-,-,5.58,Log unit,25,?C,OC(=O)c1cc(c(nc1C(=O)[O-])C(=O)[O-])C(=O)[O-],13
ClC1=CC(Cl)=C(Cl)N=C1Cl,-,R946280,M26799,-,-,"2,3,5,6-TETRACHLOROPYRIDINE",Koerner,charochkina,A5793,-,-,-,-5.5,Log unit,25,?C,n1c(Cl)c(Cl)cc(c1Cl)Cl,2
OC1=C(Cl)C(Cl)=NC(Cl)=C1Cl,-,R946281,M52302,-,-,"2,3,5,6-tetrachloro-4-hydroxypyridine",Koerner,charochkina,A5793,-,-,-,-4.1,Log unit,25,?C,n1c(Cl)c(Cl)c(c(c1Cl)Cl)O,2
OC1=C(Cl)C(Cl)=NC(Cl)=C1Cl,-,R946282,M52302,-,-,"2,3,5,6-tetrachloro-4-hydroxypyridine",Koerner,charochkina,A5793,-,-,-,2,Log unit,25,?C,Oc1c(c(Cl)nc(Cl)c1Cl)Cl,10
CC1=NC(C)=C(C)C(=C1C)N(=O)=O,-,R946283,M1106805,-,-,"2,3,5,6-tetramethyl-4-nitropyridine",Koerner,charochkina,A5793,-,-,-,4.08,Log unit,25,?C,n1c(c(C)c(N(=O)=O)c(c1C)C)C,0
BrC1=C(Br)C(Br)=NC=C1,-,R946284,M1106806,-,-,"2,3,4-tribromopyridine",Koerner,charochkina,A5793,-,-,-,-1.07,Log unit,25,?C,n1c(Br)c(Br)c(cc1)Br,2
BrC1=CC=C(Br)C(Br)=N1,-,R946285,M1106807,-,-,"2,3,6-tribromopyridine",Koerner,charochkina,A5793,-,-,-,-3.81,Log unit,25,?C,n1c(Br)c(Br)ccc1Br,2
BrC1=CC(Br)=NC(Br)=C1,-,R946286,M1106808,-,-,"2,4,6-tribromopyridine",Koerner,charochkina,A5793,-,-,-,-3.36,Log unit,25,?C,n1c(Br)cc(cc1Br)Br,2
BrC1=CN=CC(Br)=C1Br,-,R946287,M1106809,-,-,"3,4,5-tribromopyridine",Koerner,charochkina,A5793,-,-,-,0.45,Log unit,25,?C,n1cc(c(Br)c(Br)c1)Br,5
COC1=C(Cl)C(Cl)=NC=C1Cl,-,R946288,M1106810,-,-,"2,3,5-trichloro-4-methoxypyridine",Koerner,charochkina,A5793,-,-,-,-2.06,Log unit,25,?C,n1c(Cl)c(Cl)c(c(c1)Cl)OC,2
CC1=CC(C)=NC(C)=C1,-,R946289,M18671,-,-,"2,4,6-Trimethylpyridine",Koerner,charochkina,A5793,-,-,-,7.455,Log unit,25,?C,n1c(cc(C)cc1C)C,0
C=CC1=CC=CC=N1,-,R946290,M18332,-,-,2-VINYLPYRIDINE,Koerner,charochkina,A5793,-,-,-,4.95,Log unit,25,?C,n1ccccc1C=C,0
CC1=CC=C(C=CC2=CC=NC=C2)C=C1,-,R946291,M1106811,-,-,trans-4-p-methylstyryl-pyridine,Koerner,charochkina,A5793,-,-,-,5.94,Log unit,25,?C,n1ccc(C=Cc2ccc(C)cc2)cc1,0
O=N(=O)C1=CN=CC=C1,-,R946292,M9228,-,-,3-nitro-pyridine,Koerner,charochkina,A5793,-,-,-,0.79,Log unit,25,?C,n1cccc(c1)N(=O)=O,0
O=N(=O)C1=CC(=CC=C1)C1=CC=NC=C1,-,R946293,M1106812,-,-,4-m-nitrophenyl-pyridine,Koerner,charochkina,A5793,-,-,-,4.9,Log unit,25,?C,n1ccc(c2cccc(c2)N(=O)=O)cc1,0
O=N(=O)C1=CC=C(C=C1)C1=CC=NC=C1,-,R946294,M739095,-,-,4-p-nitrophenyl-pyridine,Koerner,charochkina,A5793,-,-,-,4.87,Log unit,25,?C,n1ccc(c2ccc(N(=O)=O)cc2)cc1,0
O=N(=O)C1=CC=C(C=CC2=CC=NC=C2)C=C1,-,R946295,M1106813,-,-,trans-p-nitrostyryl-pyridine,Koerner,charochkina,A5793,-,-,-,5.15,Log unit,25,?C,n1ccc(C=Cc2ccc(N(=O)=O)cc2)cc1,0
C1=CC=C(C=C1)C1=CN=CC=C1,-,R946296,M3861,-,-,3-phenyl-pyridine,Koerner,charochkina,A5793,-,-,-,4.8,Log unit,25,?C,n1cccc(c1)c1ccccc1,0
C1=CC=C(C=C1)C1=CC=NC=C1,-,R946297,M5312,-,-,4-Phenyl-pyridine,Koerner,charochkina,A5793,-,-,-,5.55,Log unit,25,?C,n1ccc(c2ccccc2)cc1,0
C1=CC=C(C=C1)N=NC1=CC=NC=C1,-,R946298,M27108,-,-,4-phenylazo-pyridine,Koerner,charochkina,A5793,-,-,-,3.5,Log unit,25,?C,n1ccc(N=Nc2ccccc2)cc1,0
C1=CC(=CN=C1)C1=CN=CC=C1,-,R946299,M21905,-,-,3-(3-pyridyl)-pyridine,Koerner,charochkina,A5793,-,-,-,4.6,Log unit,25,?C,n1cccc(c1)c1cnccc1,0
C1=CC(=CN=C1)C1=CC=NC=C1,-,R946300,M1106814,-,-,3-(4-pyridyl)-pyridine,Koerner,charochkina,A5793,-,-,-,4.85,Log unit,25,?C,n1ccc(c2cnccc2)cc1,0
C1=CC(=CC=N1)C1=CC=NC=C1,-,R946301,M7080,-,-,4-(4-pyridyl)-pyridine,Koerner,charochkina,A5793,-,-,-,4.82,Log unit,25,?C,n1ccc(c2ccncc2)cc1,0
C(=CC1=CC=NC=C1)C1=CC=CC=C1,-,R946302,M105229,-,-,trans-4-styryl-pyridine,Koerner,charochkina,A5793,-,-,-,5.92,Log unit,25,?C,n1ccc(C=Cc2ccccc2)cc1,0
C=CC1=CC=NC=C1,-,R946303,M18322,-,-,4-vinyl-pyridine,Koerner,charochkina,A5793,-,-,-,5.62,Log unit,25,?C,n1ccc(C=C)cc1,0
C1=CN=CC=N1,-,R946304,M5986,-,-,Pyrazine,Koerner,charochkina,A5793,-,-,-,0.8,Log unit,25,?C,n1ccncc1,0
CNC1=C(N=CC=N1)C(N)=N,-,R946305,M1106815,-,-,"Pyrazine, 2-amidino-3-methylamino-",Koerner,charochkina,A5793,-,-,-,8.96,Log unit,25,?C,C(=N)(c1c(nccn1)NC)N,8
CS(=O)(=O)C1=NC=CN=C1,-,R946306,M1106816,-,-,2-methylsulphonylpyrazine,Koerner,charochkina,A5793,-,-,-,-2.47,Log unit,25,?C,n1c(S(=O)(=O)C)cncc1,5
SC1CNCC[NH2+]1,-,R946307,M1107293,-,-,2-mercaptopyrazine,Koerner,charochkina,A5793,-,-,-,-0.73,Log unit,25,?C,SC1[NH2+][CH][CH]N[CH]1,0
COC1CCC(S)[NH2+]N1,-,R946308,M1107294,-,-,3-methoxy-6-mercaptopyridazine,Koerner,charochkina,A5793,-,-,-,-2.36,Log unit,25,?C,SC1[NH2+]NC(OC)[CH][CH]1,0
C1=CN=NC=C1,-,R946309,M8428,-,-,pyridazine,Koerner,charochkina,A5793,-,-,-,2.6,Log unit,25,?C,n1ncccc1,0
COC1=CC=C(OC)N=N1,-,R946310,M1106817,-,-,"3,6-dimethoxypyridazine",Koerner,charochkina,A5793,-,-,-,1.31,Log unit,25,?C,n1nc(OC)ccc1OC,0
CC1=CC=C(C)N=N1,-,R946311,M1106818,-,-,"2,6-dimethylpyridazine",Koerner,charochkina,A5793,-,-,-,3.69,Log unit,25,?C,n1nc(ccc1C)C,0
SC1CCCN[NH2+]1,-,R946312,M1107295,-,-,3-mercaptopyridazine,Koerner,charochkina,A5793,-,-,-,-2.68,Log unit,25,?C,SC1[NH2+]N[CH][CH][CH]1,0
CC1=C(C)C(C)=C(C)N=N1,-,R946313,M1106819,-,-,"3,4,5,6-tetramethylpyridazine",Koerner,charochkina,A5793,-,-,-,5.06,Log unit,25,?C,n1nc(C)c(C)c(c1C)C,0
C1=CN=CN=C1,-,R946314,M1783,-,-,pyrimidine,Koerner,charochkina,A5793,-,-,-,0.93,Log unit,25,?C,n1cnccc1,0
NC1=NC=CC=N1,-,R946315,M6216,-,-,2-Aminopyrimidine,Koerner,charochkina,A5793,-,-,-,3.3,Log unit,25,?C,n1cccnc1N,0
NC1=CN=CN=C1,-,R946316,M1106820,-,-,5-amino-pyrimidine,Koerner,charochkina,A5793,-,-,-,2.27,Log unit,25,?C,n1cncc(c1)N,0
NC1=NC=C(Br)C=N1,-,R946317,M746971,-,-,2-Amino-5-bromopyrimidine,Koerner,charochkina,A5793,-,-,-,1.95,Log unit,25,?C,n1cc(Br)cnc1N,3
CC1=NC(N)=NC(C)=C1Br,-,R946318,M1106821,-,-,"2-amino-5-bromo-4,6-dimethylpyrimidine",Koerner,charochkina,A5793,-,-,-,3,Log unit,25,?C,n1c(c(Br)c(nc1N)C)C,3
NC(=O)C1=CN=C(N)N=C1,-,R946319,M1106822,-,-,2-amino-5-carbamoylpyrimidine,Koerner,charochkina,A5793,-,-,-,1.8,Log unit,25,?C,n1cc(cnc1N)C(=O)N,0
CC1=NC(N)=NC(C)=C1C(N)=O,-,R946320,M1106823,-,-,"2-amino-5-carbamoyl-4,6-dimethylpyrimidine",Koerner,charochkina,A5793,-,-,-,3.11,Log unit,25,?C,n1c(nc(C)c(c1C)C(=O)N)N,0
CC1=C(C=NC(N)=N1)C(N)=O,-,R946321,M1106824,-,-,2-amino-5-carbamoyl-4-methylpyrimidine,Koerner,charochkina,A5793,-,-,-,2.6,Log unit,25,?C,n1cc(c(C)nc1N)C(=O)N,0
NC1=CC(Cl)=NC=N1,-,R946322,M1106825,-,-,4-amino-6-chloropyrimidine,Koerner,charochkina,A5793,-,-,-,2.1,Log unit,25,?C,n1c(Cl)cc(nc1)N,2
CC1=CC(C)=NC(N)=N1,-,R946323,M23573,-,-,"2-AMINO-4,6-DIMETHYLPYRIMIDINE",Koerner,charochkina,A5793,-,-,-,4.675,Log unit,25,?C,n1c(nc(C)cc1C)N,0
CC1=NC(N)=NC(C)=C1C1=CC=C(C=C1)N(=O)=O,-,R946324,M1106826,-,-,"2-amino-4,6-dimethyl-5-(4-nitrophenyl)pyrimidine",Koerner,charochkina,A5793,-,-,-,4.54,Log unit,25,?C,n1c(c(c2ccc(N(=O)=O)cc2)c(nc1N)C)C,9
CC1=NC(N)=NC(C)=C1C1=CC(=CC=C1)N(=O)=O,-,R946325,M1106827,-,-,"2-amino-4,6-dimethyl-5-(3-nitrophenyl)pyrimidine",Koerner,charochkina,A5793,-,-,-,4.17,Log unit,25,?C,n1c(c(c2cc(N(=O)=O)ccc2)c(nc1N)C)C,11
CC1=NC(N)=NC(C)=C1C1=CC=C(C=C1)N(=O)=O,-,R946326,M1106826,-,-,"2-amino-4,6-dimethyl-5-(4-nitrophenyl)pyrimidine",Koerner,charochkina,A5793,-,-,-,4.24,Log unit,25,?C,n1c(c(c2ccc(N(=O)=O)cc2)c(nc1N)C)C,14
CC1=NC(N)=NC(C)=C1C1=CC=CC=C1,-,R946327,M1106828,-,-,"2-amino-4,6-dimethyl-5-phenylpyrimidine",Koerner,charochkina,A5793,-,-,-,4.61,Log unit,25,?C,n1c(c(c2ccccc2)c(nc1N)C)C,6
CN(C)C1=C(C)C=NC=C1C,-,R946128,M1106757,-,-,"3,5-dimethyl-4-dimethylaminopyridine",Koerner,charochkina,A5793,-,-,-,7.965,Log unit,25,?C,n1cc(C)c(N(C)C)c(c1)C,0
CNC1=C(C)C=NC=C1C,-,R946129,M1106758,-,-,"3,5-dimethyl-4-methylaminopyridine",Koerner,charochkina,A5793,-,-,-,9.925,Log unit,25,?C,n1cc(C)c(NC)c(c1)C,0
CC1=CN=CC(C)=C1N(=O)=O,-,R946130,M1106759,-,-,"3,5-dimethyl-4-nitropyridine",Koerner,charochkina,A5793,-,-,-,2.51,Log unit,25,?C,n1cc(C)c(N(=O)=O)c(c1)C,0
CC1=CC=C(C(C)=N1)S([O-])(=O)=O,-,R946131,M1106760,-,-,2.6-dimethyl-3-sulphopyridine,Koerner,charochkina,A5793,-,-,-,4.89,Log unit,25,?C,n1c(c(S(=O)(=O)[O-])ccc1C)C,10
CC1=CC(=CC(C)=N1)S(O)(=O)=O,-,R946132,M1106761,-,-,2.6-dimethyl-4-sulphopyridine,Koerner,charochkina,A5793,-,-,-,5.09,Log unit,25,?C,n1c(cc(S(=O)(=O)O)cc1C)C,7
CCOC1=CC=NC=C1,-,R946133,M124467,-,-,4-ETHOXYPYRIDINE,Koerner,charochkina,A5793,-,-,-,6.67,Log unit,25,?C,n1ccc(OCC)cc1,0
CCOC(=O)C1=CN=CC=C1,-,R946134,M12789,-,-,3-ethoxycarbonylpyridine,Koerner,charochkina,A5793,-,-,-,3.35,Log unit,25,?C,n1cccc(c1)C(=O)OCC,0
CCOC(=O)C1=CC=NC=C1,-,R946135,M6651,-,-,4-ethoxycarbonylpyridine,Koerner,charochkina,A5793,-,-,-,3.45,Log unit,25,?C,n1ccc(C(=O)OCC)cc1,0