Smiles,CASRN,Record ID,Molecule ID,External ID,N,Name,Introducer,Modifer,Article ID,PUBMED ID,PAGE,TABLE,pKa,pKa Unit,Temperature,Temperature Unit,Ionizable center smiles,IC group
CCOC1=CC=NC=C1N(=O)=O,-,R946136,M109428,-,-,4-Ethoxy-3-nitropyridine,Koerner,charochkina,A5793,-,-,-,2.67,Log unit,25,?C,n1ccc(OCC)c(c1)N(=O)=O,0
CCC1=CC=CC=N1,-,R946137,M7541,-,-,2-ETHYLPYRIDINE,Koerner,charochkina,A5793,-,-,-,5.98,Log unit,25,?C,n1ccccc1CC,0
CCC1=CN=CC=C1,-,R946138,M21403,-,-,3-ETHYLPYRIDINE,Koerner,charochkina,A5793,-,-,-,5.7,Log unit,25,?C,n1cccc(c1)CC,0
CCC1=CC=NC=C1,-,R946139,M21402,-,-,4-ETHYLPYRIDINE,Koerner,charochkina,A5793,-,-,-,6.02,Log unit,25,?C,n1ccc(CC)cc1,0
CCC1=CN=CC(C)=C1,-,R946140,M1106762,-,-,3-ethyl-5-methylpyridine,Koerner,charochkina,A5793,-,-,-,6.3,Log unit,25,?C,n1cc(cc(c1)CC)C,0
CCC1=CC=C(C)N=C1,-,R946141,M7588,-,-,3-Ethyl-6-methylpyridine,Koerner,charochkina,A5793,-,-,-,6.51,Log unit,25,?C,n1cc(ccc1C)CC,0
CCC1=CN=CC=C1NC,-,R946142,M1106763,-,-,3-ethyl-4-methylaminopyridine,Koerner,charochkina,A5793,-,-,-,9.89,Log unit,25,?C,n1ccc(NC)c(c1)CC,0
CCC1=CN=CC=C1N(=O)=O,-,R946143,M1106764,-,-,3-ethyl-4-nitropyridine,Koerner,charochkina,A5793,-,-,-,2.16,Log unit,25,?C,n1ccc(N(=O)=O)c(c1)CC,0
FC1=CC=CC=N1,-,R946144,M20256,-,-,2-FLUOROPYRIDINE,Koerner,charochkina,A5793,-,-,-,-0.44,Log unit,25,?C,n1ccccc1F,0
FC1=CN=CC=C1,-,R946145,M20255,-,-,3-fluoro-pyridine,Koerner,charochkina,A5793,-,-,-,2.985,Log unit,25,?C,n1cccc(c1)F,0
O=CC1=CC=CC=N1,-,R946146,M24643,-,-,2-Formylpyridine,Koerner,charochkina,A5793,-,-,-,3.78,Log unit,25,?C,n1ccccc1C=O,0
O=CC1=CN=CC=C1,-,R946147,M9205,-,-,3-FORMYLPYRIDINE,Koerner,charochkina,A5793,-,-,-,3.749,Log unit,25,?C,n1cccc(c1)C=O,0
O=CC1=CC=NC=C1,-,R946148,M23868,-,-,4-FORMYLPYRIDINE,Koerner,charochkina,A5793,-,-,-,4.65,Log unit,25,?C,n1ccc(C=O)cc1,0
OC1=C(C=O)N=CC=C1,-,R946149,M124444,-,-,2-FORMYL-3-HYDROXYPYRIDINE,Koerner,charochkina,A5793,-,-,-,3.4,Log unit,25,?C,n1cccc(c1C=O)O,0
OC1=CN=CC=C1C=O,-,R946150,M124468,-,-,4-FORMYL-3-HYDROXYPYRIDINE,Koerner,charochkina,A5793,-,-,-,4.05,Log unit,25,?C,n1ccc(C=O)c(c1)O,0
COC1=C(C=O)N=CC=C1,-,R946151,M124445,-,-,2-FORMYL-3-METHOXYPYRIDINE,Koerner,charochkina,A5793,-,-,-,3.89,Log unit,25,?C,n1cccc(c1C=O)OC,0
COC1=CN=CC=C1C=O,-,R946152,M124469,-,-,4-FORMYL-3-METHOXYPYRIDINE,Koerner,charochkina,A5793,-,-,-,4.45,Log unit,25,?C,n1ccc(C=O)c(c1)OC,0
CCCCCCC1=CC=CC=N1,-,R946153,M24699,-,-,2-Hexylpyridine,Koerner,charochkina,A5793,-,-,-,5.95,Log unit,25,?C,n1ccccc1CCCCCC,0
[O-]C1=NC=CC=C1,-,R946154,M10935,-,-,2-hydroxypyridine,Koerner,charochkina,A5793,-,-,-,11.8,Log unit,25,?C,n1c([O-])cccc1,0
OC1CCCC[NH2+]1,-,R946155,M718096,-,-,2-hydroxypyridine,Koerner,charochkina,A5793,-,-,-,0.75,Log unit,25,?C,OC1[NH2+][CH][CH][CH][CH]1,2
OC1=CN=CC=C1,-,R946156,M3450,-,-,3-hydroxypyridine,Koerner,charochkina,A5793,-,-,-,4.795,Log unit,25,?C,n1cccc(c1)O,0
[O-]C1=CC=NC=C1,-,R946157,M3093,-,-,4-hydroxypyridine,Koerner,charochkina,A5793,-,-,-,11.12,Log unit,25,?C,n1ccc([O-])cc1,0
OC1CC[NH2+]CC1,-,R946158,M75323,-,-,4-hydroxypyridine,Koerner,charochkina,A5793,-,-,-,3.2,Log unit,25,?C,OC1[CH][CH][NH2+][CH][CH]1,4
OC(C1=CC=CC=C1)C1=NC=CC=C1,-,R946159,M33225,-,-,2-hydroxybenzyl-pyridine,Koerner,charochkina,A5793,-,-,-,4.435,Log unit,25,?C,n1c(C(O)c2ccccc2)cccc1,0
NNC(=O)C1=CN=CC=C1,-,R946160,M21649,-,-,3-hydrazinocarbonylpyridine,Koerner,charochkina,A5793,-,-,-,3.29,Log unit,25,?C,n1cccc(c1)C(=O)NN,0
NNC(=O)C1=CC=NC=C1,-,R946161,M9394,-,-,4-hydrazinocarbonylpyridine,Koerner,charochkina,A5793,-,-,-,3.52,Log unit,25,?C,n1ccc(C(=O)NN)cc1,0
OC(C1=CC=CC=C1)(C1=CC=CC=C1)C1=NC=CC=C1,-,R946162,M1106765,-,-,2-(hydroxydiphenylmethyl)pyridine,Koerner,charochkina,A5793,-,-,-,3.9,Log unit,25,?C,n1c(C(c2ccccc2)(c2ccccc2)O)cccc1,0
OCCC1=CC=NC=C1,-,R946163,M2342,-,-,4-(2-Hydroxyethyl)pyridine,Koerner,charochkina,A5793,-,-,-,5.6,Log unit,25,?C,n1ccc(CCO)cc1,0
CC(O)C1=CC=CC(C)=N1,-,R946164,M1106766,-,-,2-(1-hydroxyethyl)-6-methylpyridine,Koerner,charochkina,A5793,-,-,-,5.2,Log unit,25,?C,n1c(cccc1C(O)C)C,0
CC1=NC(CCO)=CC=C1,-,R946165,M68193,-,-,2-(2-hydroxyethyl)-6-methylpyridine,Koerner,charochkina,A5793,-,-,-,6.1,Log unit,25,?C,n1c(cccc1CCO)C,0
COC1=C(O)C=CC=N1,-,R946166,M724594,-,-,3-hydroxy-2-methoxypyridine,Koerner,charochkina,A5793,-,-,-,2.1,Log unit,25,?C,n1cccc(c1OC)O,0
COC1=C(O)C=CC=N1,-,R946167,M724594,-,-,3-hydroxy-2-methoxypyridine,Koerner,charochkina,A5793,-,-,-,8.65,Log unit,25,?C,Oc1c(nccc1)OC,6
OCC1=CC=CC=N1,-,R946168,M10371,-,-,2-hydroxymethylpyridine,Koerner,charochkina,A5793,-,-,-,4.83,Log unit,25,?C,n1ccccc1CO,0
OCC1=CN=CC=C1,-,R946169,M7057,-,-,3-Hydroxymethylpyridine,Koerner,charochkina,A5793,-,-,-,4.925,Log unit,25,?C,n1cccc(c1)CO,0
OCC1=CC=NC=C1,-,R946170,M8805,-,-,4-Hydroxymethylpyridine,Koerner,charochkina,A5793,-,-,-,5.39,Log unit,25,?C,n1ccc(CO)cc1,0
CC1=NC(CO)=CC=C1,-,R946171,M68702,-,-,2-Hydroxymethyl-6-methylpyridine,Koerner,charochkina,A5793,-,-,-,5.43,Log unit,25,?C,n1c(cccc1CO)C,0
OCCCC1=CC=CC=N1,-,R946172,M2967,-,-,2-(3-hydroxypropyl)pyridine,Koerner,charochkina,A5793,-,-,-,5.61,Log unit,25,?C,n1ccccc1CCCO,0
OCCCC1=CN=CC=C1,-,R946173,M14408,-,-,3-(3-hydroxypropyl)-pyridine,Koerner,charochkina,A5793,-,-,-,5.47,Log unit,25,?C,n1cccc(c1)CCCO,0
OCCCC1=CC=NC=C1,-,R946174,M8950,-,-,4-(3-Hydroxypropyl)pyridine,Koerner,charochkina,A5793,-,-,-,5.84,Log unit,25,?C,n1ccc(CCCO)cc1,0
SC1[NH2+]CCCC1N(=O)=O,-,R946175,M1107284,-,-,2-mercapto-3-nitropyridine,Koerner,charochkina,A5793,-,-,-,-2.49,Log unit,25,?C,SC1[NH2+][CH][CH][CH]C1N(=O)=O,0
[S-]C1=NC=CC=C1N(=O)=O,-,R946176,M1106767,-,-,2-mercapto-3-nitropyridine,Koerner,charochkina,A5793,-,-,-,6.9,Log unit,25,?C,n1c([S-])c(ccc1)N(=O)=O,2
OCC1=C(O)C=CC=N1,-,R946177,M114965,-,-,3-hydroxy-2-hydroxymethylpyridine,Koerner,charochkina,A5793,-,-,-,5,Log unit,25,?C,n1cccc(c1CO)O,0
OCC1=CC=NC=C1O,-,R946178,M1106768,-,-,3-hydroxy-4-hydroxymethylpyridine,Koerner,charochkina,A5793,-,-,-,5,Log unit,25,?C,n1ccc(CO)c(c1)O,0
CC1=C(O)C(C)=C(CO)C=N1,-,R946179,M17247,-,-,"3-hydroxy-5-hydroxymethyl-2,4-dimethylpyridine",Koerner,charochkina,A5793,-,-,-,5.4,Log unit,25,?C,n1cc(c(C)c(c1C)O)CO,0
OC1=CC=CC=C1C1=CC=CC=N1,-,R946180,M1106769,-,-,2-(2-hydroxyphenyl)pyridine,Koerner,charochkina,A5793,-,-,-,4.19,Log unit,25,?C,n1ccccc1c1ccccc1O,0
IC1=NC=CC=C1,-,R946181,M110744,-,-,2-Iodopyridine,Koerner,charochkina,A5793,-,-,-,1.82,Log unit,25,?C,n1c(I)cccc1,2
IC1=CN=CC=C1,-,R946182,M24632,-,-,3-Iodo-pyridine,Koerner,charochkina,A5793,-,-,-,3.25,Log unit,25,?C,n1cc(I)ccc1,3
IC1=CC=NC=C1,-,R946183,M749942,-,-,4-iodo-pyridine,Koerner,charochkina,A5793,-,-,-,4.02,Log unit,25,?C,n1ccc(I)cc1,4
COC1=NC=C(I)C=C1,-,R946184,M1106770,-,-,5-iodo-2-methoxypyridine,Koerner,charochkina,A5793,-,-,-,1.51,Log unit,25,?C,n1cc(I)ccc1OC,3
CC(C)C1=CC=CC=N1,-,R946185,M23140,-,-,2-Isopropylpyridine,Koerner,charochkina,A5793,-,-,-,5.83,Log unit,25,?C,n1ccccc1C(C)C,0
CC(C)C1=CN=CC=C1,-,R946186,M90636,-,-,3-ISOPROPYLPYRIDINE,Koerner,charochkina,A5793,-,-,-,5.8,Log unit,25,?C,n1cccc(c1)C(C)C,0
CC(C)C1=CC=NC=C1,-,R946187,M23346,-,-,4-Isopropylpyridine,Koerner,charochkina,A5793,-,-,-,6.02,Log unit,25,?C,n1ccc(C(C)C)cc1,0
CNC1=CC=NC=C1C(C)C,-,R946188,M1106771,-,-,3-isopropyl-4-methylaminopyridine,Koerner,charochkina,A5793,-,-,-,9.98,Log unit,25,?C,n1ccc(NC)c(c1)C(C)C,0
CC(C)C1=CN=CC=C1N(=O)=O,-,R946189,M1106772,-,-,3-isopropyl-4-nitropyridine,Koerner,charochkina,A5793,-,-,-,2.22,Log unit,25,?C,n1ccc(N(=O)=O)c(c1)C(C)C,0
SC1CCCC[NH2+]1,-,R946190,M1107285,-,-,2-Mercaptopyridine,Koerner,charochkina,A5793,-,-,-,-1.07,Log unit,25,?C,SC1[NH2+][CH][CH][CH][CH]1,0
[S-]C1=NC=CC=C1,-,R946191,M27215,-,-,2-Mercaptopyridine,Koerner,charochkina,A5793,-,-,-,9.8,Log unit,25,?C,n1c([S-])cccc1,2
[S-]C1=CN=CC=C1,-,R946192,M33769,-,-,3-Mercaptopyridine,Koerner,charochkina,A5793,-,-,-,7.03,Log unit,25,?C,n1cc([S-])ccc1,3
SC1CCC[NH2+]C1,-,R946193,M1107286,-,-,3-Mercaptopyridine,Koerner,charochkina,A5793,-,-,-,2.26,Log unit,25,?C,SC1[CH][NH2+][CH][CH][CH]1,0
SC1CC[NH2+]CC1,-,R946194,M1107287,-,-,4-Mercaptopyridine,Koerner,charochkina,A5793,-,-,-,1.455,Log unit,25,?C,SC1[CH][CH][NH2+][CH][CH]1,0
[S-]C1=CC=NC=C1,-,R946195,M29507,-,-,4-Mercaptopyridine,Koerner,charochkina,A5793,-,-,-,8.86,Log unit,25,?C,n1ccc([S-])cc1,4
COC1=CC=CC=N1,-,R946196,M25501,-,-,2-METHOXYPYRIDINE,Koerner,charochkina,A5793,-,-,-,3.25,Log unit,25,?C,n1ccccc1OC,0
COC1=CN=CC=C1,-,R946197,M31827,-,-,3-methoxy-pyridine,Koerner,charochkina,A5793,-,-,-,4.91,Log unit,25,?C,n1cccc(c1)OC,0
COC1=CC=NC=C1,-,R946198,M22623,-,-,4-methoxy-pyridine,Koerner,charochkina,A5793,-,-,-,6.51,Log unit,25,?C,n1ccc(OC)cc1,0
COC(=O)C1=CC=CC=N1,-,R946199,M26923,-,-,2-METHOXYCARBONYLPYRIDINE,Koerner,charochkina,A5793,-,-,-,2.21,Log unit,25,?C,n1ccccc1C(=O)OC,0
COC1=C(C)C(=CN=C1)C1=CC=CC=C1,-,R946200,M1106773,-,-,3-methoxy-4-methyl-5-phenylpyridine,Koerner,charochkina,A5793,-,-,-,5,Log unit,25,?C,n1cc(c2ccccc2)c(c(c1)OC)C,6
COC(=O)C1=CC(OC)=CC(=N1)C(=O)OC,-,R946201,M1106774,-,-,"4-methoxy-2,6-bis(methoxycarbonyl)pyridine",Koerner,charochkina,A5793,-,-,-,0.18,Log unit,25,?C,n1c(cc(OC)cc1C(=O)OC)C(=O)OC,0
COC(=O)C1=CN=CC=C1,-,R946202,M13656,-,-,3-METHOXYCARBONYLPYRIDINE,Koerner,charochkina,A5793,-,-,-,3.13,Log unit,25,?C,n1cccc(c1)C(=O)OC,0
COC(=O)C1=CC=NC=C1,-,R946203,M8059,-,-,4-Methoxycarbonylpyridine,Koerner,charochkina,A5793,-,-,-,3.26,Log unit,25,?C,n1ccc(C(=O)OC)cc1,0
COC(=O)C1=C(N=C(OC)C=C1)C(=O)OC,-,R946204,M1106775,-,-,"2-methoxy-5,6-di(methoxycarbonyl)pyridine",Koerner,charochkina,A5793,-,-,-,-2.27,Log unit,25,?C,n1c(ccc(c1C(=O)OC)C(=O)OC)OC,0
COCC1=C(COC)N=C(OC)C=C1,-,R946205,M1106776,-,-,"2-methoxy-5,6-di(methoxymethyl)pyridine",Koerner,charochkina,A5793,-,-,-,2.55,Log unit,25,?C,n1c(ccc(c1COC)COC)OC,0
COC1=CC=C(C)C(C)=N1,-,R946206,M1106777,-,-,"2-methoxy-5,6-dimethylpyridine",Koerner,charochkina,A5793,-,-,-,4.86,Log unit,25,?C,n1c(c(ccc1OC)C)C,0
COC1=CC=C(CSC)C(CSC)=N1,-,R946207,M1106778,-,-,"2-methoxy-5,6-di(methylthiomethyl)pyridine",Koerner,charochkina,A5793,-,-,-,2.64,Log unit,25,?C,n1c(CSC)c(ccc1OC)CSC,4
COC1=CC=C(C=CC2=CC=NC=C2)C=C1,-,R946208,M674394,-,-,trans-4-p-methoxystyryl-pyridine,Koerner,charochkina,A5793,-,-,-,6.03,Log unit,25,?C,n1ccc(C=Cc2ccc(OC)cc2)cc1,0
COC1=CC=C(C)C=N1,-,R946209,M1106779,-,-,2-methoxy-5-methylpyridine,Koerner,charochkina,A5793,-,-,-,3.73,Log unit,25,?C,n1cc(ccc1OC)C,0
COC1=CC=NC=C1N(=O)=O,-,R946210,M1106780,-,-,4-methoxy-3-nitropyridine,Koerner,charochkina,A5793,-,-,-,2.62,Log unit,25,?C,n1ccc(OC)c(c1)N(=O)=O,0
CC1=CC=CC=N1,-,R946211,M1014,-,-,2-METHYLPYRIDINE,Koerner,charochkina,A5793,-,-,-,5.94,Log unit,25,?C,n1ccccc1C,0
CC1=CN=CC=C1,-,R946212,M4670,-,-,3-methyl-pyridine,Koerner,charochkina,A5793,-,-,-,5.65,Log unit,25,?C,n1cccc(c1)C,0
CC1=CC=NC=C1,-,R946213,M2669,-,-,4-methyl-pyridine,Koerner,charochkina,A5793,-,-,-,6.03,Log unit,25,?C,n1ccc(C)cc1,0
CN(C(C)=O)C1=CC=CC=N1,-,R946214,M1106781,-,-,2-(N-methylacetamido)pyridine,Koerner,charochkina,A5793,-,-,-,2.01,Log unit,25,?C,n1ccccc1N(C(=O)C)C,0
CN(C(C)=O)C1=CN=CC=C1,-,R946215,M1106782,-,-,3-(N-methylacetamido)pyridine,Koerner,charochkina,A5793,-,-,-,3.52,Log unit,25,?C,n1cccc(c1)N(C(=O)C)C,0
CN(C(C)=O)C1=CC=NC=C1,-,R946216,M1106783,-,-,4-(N-methylacetamido)pyridine,Koerner,charochkina,A5793,-,-,-,4.62,Log unit,25,?C,n1ccc(N(C(=O)C)C)cc1,0
CNC1=CC=NC=C1,-,R946217,M124462,-,-,4-Methylaminopyridine,Koerner,charochkina,A5793,-,-,-,9.65,Log unit,25,?C,n1ccc(NC)cc1,0
CNCCC1=CC=CC=N1,-,R946218,M11388,-,-,2-(2-METHYLAMINOETHYL)PYRIDINE,Koerner,charochkina,A5793,-,-,-,9.715,Log unit,25,?C,N(CCc1ncccc1)C,8
C[NH2+]CCC1=CC=CC=N1,-,R946219,M11388,-,-,2-(2-METHYLAMINOETHYL)PYRIDINE,Koerner,charochkina,A5793,-,-,-,3.57,Log unit,25,?C,n1ccccc1CC[NH2+]C,0
CNCC1=CC=CC=N1,-,R946220,M79962,-,-,2-methylaminomethylpyridine,Koerner,charochkina,A5793,-,-,-,9.200001,Log unit,25,?C,N(Cc1ncccc1)C,7
C[NH2+]CC1=CC=CC=N1,-,R946221,M79962,-,-,2-methylaminomethylpyridine,Koerner,charochkina,A5793,-,-,-,2.9,Log unit,25,?C,n1ccccc1C[NH2+]C,0
CC1=CN=CC=C1N(=O)=O,-,R946222,M1106784,-,-,3-methyl-4-nitropyridine,Koerner,charochkina,A5793,-,-,-,2.26,Log unit,25,?C,n1ccc(N(=O)=O)c(c1)C,0
CN(C(=O)C1=CC=CC=C1)C1=CN=CC=C1,-,R946223,M1106785,-,-,3-(N-methylbenzamido)pyridine,Koerner,charochkina,A5793,-,-,-,3.66,Log unit,25,?C,n1cccc(c1)N(C(=O)c1ccccc1)C,0
CN(C(=O)C1=CC=CC=C1)C1=CC=NC=C1,-,R946224,M1106786,-,-,4-(N-methylbenzamido)pyridine,Koerner,charochkina,A5793,-,-,-,4.68,Log unit,25,?C,n1ccc(N(C(=O)c2ccccc2)C)cc1,0
CNC1=CC=NC=C1C,-,R946225,M1106787,-,-,3-methyl-4-methylaminopyridine,Koerner,charochkina,A5793,-,-,-,9.84,Log unit,25,?C,n1ccc(NC)c(c1)C,0
CC1=CC(=NC=C1)C1=CC(C)=CC=N1,-,R946226,M24716,-,-,"4-METHYL-2,2'-(4-METHYLPYRIDYL)PYRIDINE",Koerner,charochkina,A5793,-,-,-,5.02,Log unit,25,?C,n1ccc(C)cc1c1nccc(c1)C,0
CS(=O)(=O)C1=NC=CC=C1,-,R946227,M1106788,-,-,2-methylsulphonylpyridine,Koerner,charochkina,A5793,-,-,-,-1.5,Log unit,25,?C,n1c(S(=O)(=O)C)cccc1,0
CC(C)(C)C1=NC=CC=C1,-,R946028,M30768,-,-,2-Bromopyridine,Koerner,charochkina,A5793,-,-,-,5.78,Log unit,25,?C,n1c(C(C)(C)C)cccc1,0
BrC1=CN=CC=C1,-,R946029,M7692,-,-,3-bromo-pyridine,Koerner,charochkina,A5793,-,-,-,2.875,Log unit,25,?C,n1cc(Br)ccc1,3
BrC1=CC=NC=C1,-,R946030,M1008,-,-,4-bromo-pyridine,Koerner,charochkina,A5793,-,-,-,3.78,Log unit,25,?C,n1ccc(Br)cc1,4
COC1=CC(Br)=CN=C1,-,R946031,M1106738,-,-,3-bromo-5-methoxypyridine,Koerner,charochkina,A5793,-,-,-,2.6,Log unit,25,?C,n1cc(Br)cc(c1)OC,3
COC1=NC=C(Br)C=C1,-,R946032,M108843,-,-,5-Bromo-2-methoxypyridine,Koerner,charochkina,A5793,-,-,-,1.14,Log unit,25,?C,n1cc(Br)ccc1OC,3
CN(C)C1=CC=NC=C1Br,-,R946033,M1106739,-,-,3-bromo-4-dimethylaminopyridine,Koerner,charochkina,A5793,-,-,-,6.53,Log unit,25,?C,n1cc(Br)c(cc1)N(C)C,3
CNC1=CC=NC=C1Br,-,R946034,M124454,-,-,3-BROMO-4-METHYLAMINOPYRIDINE,Koerner,charochkina,A5793,-,-,-,7.49,Log unit,25,?C,n1cc(Br)c(cc1)NC,3
CC(C)(C)C1=CC=CC=N1,-,R946035,M30768,-,-,2-T-BUTYLPYRIDINE,Koerner,charochkina,A5793,-,-,-,5.76,Log unit,25,?C,n1ccccc1C(C)(C)C,0
CC(C)(C)C1=CN=CC=C1,-,R946036,M124459,-,-,3-T-BUTYLPYRIDINE,Koerner,charochkina,A5793,-,-,-,5.82,Log unit,25,?C,n1cccc(c1)C(C)(C)C,0
CC(C)(C)C1=CC=NC=C1,-,R946037,M28886,-,-,4-T-BUTYLPYRIDINE,Koerner,charochkina,A5793,-,-,-,5.99,Log unit,25,?C,n1ccc(C(C)(C)C)cc1,0
NC(=O)C1=CC=CC=N1,-,R946038,M25159,-,-,2-Carbamoylpyridine,Koerner,charochkina,A5793,-,-,-,2.1,Log unit,25,?C,n1ccccc1C(=O)N,0
NC(=O)C1=CN=CC=C1,-,R946039,M1928,-,-,3-Carbamoylpyridine,Koerner,charochkina,A5793,-,-,-,3.339,Log unit,25,?C,n1cccc(c1)C(=O)N,0
NC(=O)C1=CC=NC=C1,-,R946040,M25163,-,-,4-Carbamoylpyridine,Koerner,charochkina,A5793,-,-,-,3.61,Log unit,25,?C,n1ccc(C(=O)N)cc1,0
OC(=O)C1CCCC[NH2+]1,-,R946041,M21385,-,-,2-Carboxypyridine,Koerner,charochkina,A5793,-,-,-,1,Log unit,25,?C,OC(=O)C1[NH2+][CH][CH][CH][CH]1,8
OC(=O)C1CCC[NH2+]C1,-,R946042,M20929,-,-,3-Carboxypyridine,Koerner,charochkina,A5793,-,-,-,2.03,Log unit,25,?C,OC(=O)C1[CH][NH2+][CH][CH][CH]1,8
OC(=O)C1CC[NH2+]CC1,-,R946043,M20928,-,-,4-Carboxypyridine,Koerner,charochkina,A5793,-,-,-,1.755,Log unit,25,?C,OC(=O)C1[CH][CH][NH2+][CH][CH]1,6
CC1CCCC([NH2+]1)C(O)=O,-,R946044,M1018108,-,-,2-Carboxy-6-methylpyridine,Koerner,charochkina,A5793,-,-,-,0.9,Log unit,25,?C,OC(=O)C1[NH2+]C([CH][CH][CH]1)C,9
CC1=NC(=CC=C1)C([O-])=O,-,R946045,M68190,-,-,2-Carboxy-6-methylpyridine,Koerner,charochkina,A5793,-,-,-,5.8,Log unit,25,?C,n1c(cccc1C(=O)[O-])C,0
ClC1=NC=CC=C1,-,R946046,M8017,-,-,2-chloropyridine,Koerner,charochkina,A5793,-,-,-,0.605,Log unit,25,?C,n1c(Cl)cccc1,2
ClC1=CN=CC=C1,-,R946047,M8880,-,-,3-chloro-pyridine,Koerner,charochkina,A5793,-,-,-,2.84,Log unit,25,?C,n1cc(Cl)ccc1,3
ClC1=CC=NC=C1,-,R946048,M22832,-,-,4-chloro-pyridine,Koerner,charochkina,A5793,-,-,-,3.84,Log unit,25,?C,n1ccc(Cl)cc1,4
CN(C)CCC(C1=CC=C(Cl)C=C1)C1=NC=CC=C1,-,R946049,M10538,-,-,2-[p-chloro-alpha(2-dimethylaminoethyl)benzyl]-pyridine,Koerner,charochkina,A5793,-,-,-,9.16,Log unit,25,?C,N(CCC(c1ccc(Cl)cc1)c1ncccc1)(C)C,14
[O-]C1=CC(Cl)=NC=C1,-,R946050,M117035,-,-,2-chloro-4-hydroxypyridine,Koerner,charochkina,A5793,-,-,-,6.84,Log unit,25,?C,n1c(Cl)cc(cc1)[O-],2
OC1CC[NH2+]C(Cl)C1,-,R946051,M1107278,-,-,2-chloro-4-hydroxypyridine,Koerner,charochkina,A5793,-,-,-,2.07,Log unit,25,?C,OC1[CH]C(Cl)[NH2+][CH][CH]1,7
[O-]C1=NC=C(Cl)C=C1,-,R946052,M73947,-,-,5-Chloro-2-hydroxypyridine,Koerner,charochkina,A5793,-,-,-,10.03,Log unit,25,?C,n1cc(Cl)ccc1[O-],3
OC1CCC(Cl)C[NH2+]1,-,R946053,M1107279,-,-,5-Chloro-2-hydroxypyridine,Koerner,charochkina,A5793,-,-,-,0.01,Log unit,25,?C,OC1[NH2+][CH]C(Cl)[CH][CH]1,5
COC1=CC(Cl)=NC=C1,-,R946054,M1106740,-,-,2-chloro-4-methoxypyridine,Koerner,charochkina,A5793,-,-,-,1.93,Log unit,25,?C,n1c(Cl)cc(cc1)OC,2
COC1=CC=CC(Cl)=N1,-,R946055,M34120,-,-,2-Chloro-6-methoxypyridine,Koerner,charochkina,A5793,-,-,-,-0.13,Log unit,25,?C,n1c(Cl)cccc1OC,2
COC1=NC=C(Cl)C=C1,-,R946056,M1106741,-,-,5-chloro-2-methoxypyridine,Koerner,charochkina,A5793,-,-,-,1.18,Log unit,25,?C,n1cc(Cl)ccc1OC,3
ClC1=NC=CC=C1N(=O)=O,-,R946057,M75580,-,-,2-Chloro-3-nitropyridine,Koerner,charochkina,A5793,-,-,-,-2.6,Log unit,25,?C,n1c(Cl)c(ccc1)N(=O)=O,2
C(C=C(C1=CC=CC=C1)C1=CC=CC=N1)N1CCCC1,-,R946058,M1106742,-,-,2-(1-p-chlorophenyl-3-pyrrolidino)prop-1-enylpyridine,Koerner,charochkina,A5793,-,-,-,9.37,Log unit,25,?C,N1(CC=C(c2ncccc2)c2ccccc2)CCCC1,15
C(C=C(C1=CC=CC=C1)C1=CC=CC=N1)[NH+]1CCCC1,-,R946059,M1106742,-,-,2-(1-p-chlorophenyl-3-pyrrolidino)prop-1-enylpyridine,Koerner,charochkina,A5793,-,-,-,3.2,Log unit,25,?C,n1ccccc1C(=CC[NH+]1CCCC1)c1ccccc1,0
ClC1=CC=C(C=CC2=CC=NC=C2)C=C1,-,R946060,M1106743,-,-,trans-4-p-chlorostyryl-pyridine,Koerner,charochkina,A5793,-,-,-,5.66,Log unit,25,?C,n1ccc(C=Cc2ccc(Cl)cc2)cc1,10
N#CC1=CC=CC=N1,-,R946061,M2561,-,-,2-cyanopyridine,Koerner,charochkina,A5793,-,-,-,-0.26,Log unit,25,?C,n1ccccc1C#N,0
N#CC1=CN=CC=C1,-,R946062,M3634,-,-,3-cyano-pyridine,Koerner,charochkina,A5793,-,-,-,1.375,Log unit,25,?C,n1cccc(c1)C#N,0
N#CC1=CC=NC=C1,-,R946063,M3404,-,-,4-cyano-pyridine,Koerner,charochkina,A5793,-,-,-,1.9,Log unit,25,?C,n1ccc(C#N)cc1,0
NC1=C(N)N=CC=C1,-,R946064,M66389,-,-,"2,3-Diaminopyridine",Koerner,charochkina,A5793,-,-,-,6.899,Log unit,25,?C,n1cccc(c1N)N,0
NC1=CC=C(N)N=C1,-,R946065,M29207,-,-,"2,5-Diaminopyridine",Koerner,charochkina,A5793,-,-,-,6.48,Log unit,25,?C,n1cc(ccc1N)N,0
NC1=CC=NC=C1N,-,R946066,M17075,-,-,"4,5-Diaminopyridine",Koerner,charochkina,A5793,-,-,-,9.01,Log unit,25,?C,n1ccc(N)c(N)c1,0
NC1=C(N)N=C(Cl)C=C1,-,R946067,M981042,-,-,"2,3-diamino-6-chloropyridine",Koerner,charochkina,A5793,-,-,-,3.02,Log unit,25,?C,n1c(Cl)ccc(c1N)N,2
NC1=CN=C(Cl)C=C1N,-,R946068,M1106744,-,-,"4,5-diamino-2-chloropyridine",Koerner,charochkina,A5793,-,-,-,4.79,Log unit,25,?C,n1c(Cl)cc(c(c1)N)N,2
COC1=NC=C(Br)C=C1Br,-,R946069,M1106745,-,-,"3,5-dibromo-2-methoxypyridine",Koerner,charochkina,A5793,-,-,-,-1.5,Log unit,25,?C,n1cc(Br)cc(c1OC)Br,3
CC(C)(C)C1=CC=CC(=N1)C(C)(C)C,-,R946070,M21955,-,-,"2,6-DI-T-BUTYLPYRIDINE",Koerner,charochkina,A5793,-,-,-,5.02,Log unit,25,?C,n1c(cccc1C(C)(C)C)C(C)(C)C,0
CC(C)(C)C1=CC(=CC(=N1)C(C)(C)C)S([O-])(=O)=O,-,R946071,M1106746,-,-,"2,6-di-t-butyl-3-sulphopyridine",Koerner,charochkina,A5793,-,-,-,4.12,Log unit,25,?C,n1c(cc(S(=O)(=O)[O-])cc1C(C)(C)C)C(C)(C)C,7
OC(=O)C1[NH2+]CCCC1C([O-])=O,-,R946072,M133419,-,-,"2,3-dicarboxypyridine",Koerner,charochkina,A5793,-,-,-,2.43,Log unit,25,?C,OC(=O)C1[NH2+][CH][CH][CH]C1C(=O)[O-],11
[O-]C(=O)C1=C(N=CC=C1)C([O-])=O,-,R946073,M17897,-,-,"2,3-dicarboxypyridine",Koerner,charochkina,A5793,-,-,-,5.06,Log unit,25,?C,n1cccc(c1C(=O)[O-])C(=O)[O-],0
[O-]C(=O)C1=CN=C(C=C1)C([O-])=O,-,R946074,M18316,-,-,"2,3-dicarboxypyridine",Koerner,charochkina,A5793,-,-,-,5.12,Log unit,25,?C,n1c(C(=O)[O-])ccc(C(=O)[O-])c1,0
[O-]C(=O)C1=CC=CC(=N1)C([O-])=O,-,R946075,M20944,-,-,"2,6-Dicarboxypyridine",Koerner,charochkina,A5793,-,-,-,4.68,Log unit,25,?C,n1c(cccc1C(=O)[O-])C(=O)[O-],0
OC(=O)C1CCCC([NH2+]1)C([O-])=O,-,R946076,M1007905,-,-,"2,6-Dicarboxypyridine",Koerner,charochkina,A5793,-,-,-,1.8,Log unit,25,?C,OC(=O)C1[NH2+]C([CH][CH][CH]1)C(=O)[O-],6