Smiles,CASRN,Record ID,Molecule ID,External ID,N,Name,Introducer,Modifer,Article ID,PUBMED ID,PAGE,TABLE,pKa,pKa Unit,Temperature,Temperature Unit,Ionizable center smiles,IC group
NC1=CC=C(C=N1)N(=O)=O,-,R946013,M29113,-,-,2-Amino-5-nitropyridine,Koerner,charochkina,A5793,-,-,-,2.78,Log unit,25,?C,n1cc(ccc1N)N(=O)=O,0
NC1=CC=NC=C1N(=O)=O,-,R946014,M109342,-,-,4-Amino-3-nitropyridine,Koerner,charochkina,A5793,-,-,-,5.04,Log unit,25,?C,n1ccc(N)c(c1)N(=O)=O,0
NC1=CC=C(C=C1)C1=CC=CC=N1,-,R946015,M145345,-,-,2-p-aminophenylpyridine,Koerner,charochkina,A5793,-,-,-,5.7,Log unit,25,?C,n1ccccc1c1ccc(N)cc1,0
NC1=CC=C(C=C1)C1=CC=NC=C1,-,R946016,M1106733,-,-,4-p-aminophenyl-pyridine,Koerner,charochkina,A5793,-,-,-,6.26,Log unit,25,?C,n1ccc(c2ccc(N)cc2)cc1,0
CC1=NC(C)=C(C)C(N)=C1C,-,R946017,M1106734,-,-,"4-amino-2,3,5,6-tetramethylpyridine",Koerner,charochkina,A5793,-,-,-,10.57,Log unit,25,?C,n1c(c(c(N)c(c1C)C)C)C,0
O=C(NC1=CC=CC=N1)C1=CC=CC=C1,-,R946018,M617108,-,-,2-benzamidopyridine,Koerner,charochkina,A5793,-,-,-,3.33,Log unit,25,?C,n1ccccc1NC(=O)c1ccccc1,0
O=C(NC1=CN=CC=C1)C1=CC=CC=C1,-,R946019,M1106735,-,-,3-benzamidopyridine,Koerner,charochkina,A5793,-,-,-,3.8,Log unit,25,?C,n1cccc(c1)NC(=O)c1ccccc1,0
O=C(NC1=CC=NC=C1)C1=CC=CC=C1,-,R946020,M29999,-,-,4-Benzamidopyridine,Koerner,charochkina,A5793,-,-,-,5.32,Log unit,25,?C,n1ccc(NC(=O)c2ccccc2)cc1,0
C(C1=CC=CC=C1)C1=CC=CC=N1,-,R946021,M8443,-,-,2-Benzylpyridine,Koerner,charochkina,A5793,-,-,-,5.13,Log unit,25,?C,n1ccccc1Cc1ccccc1,0
C[NH+](C)CCN(CC1=CC=CC=C1)C1=CC=CC=N1,-,R946022,M11021,-,-,2-[benzyl(2-dimethylaminoethyl)amino]-pyridine,Koerner,charochkina,A5793,-,-,-,3.92,Log unit,25,?C,n1ccccc1N(Cc1ccccc1)CC[NH+](C)C,0
C(C1=CC=CC=C1)C1=CC=NC=C1,-,R946023,M1826,-,-,4-Benzylpyridine,Koerner,charochkina,A5793,-,-,-,5.59,Log unit,25,?C,n1ccc(Cc2ccccc2)cc1,0
CC1=C(OCC2=CC=CC=C2)C(C)=C(CO)C=N1,-,R946024,M1106736,-,-,"3-benzyloxy-5-hydroxymethyl-2,4-dimethylpyridine",Koerner,charochkina,A5793,-,-,-,5.52,Log unit,25,?C,n1c(c(OCc2ccccc2)c(c(c1)CO)C)C,8
C(SC1=CC=CC=N1)C1=CC=CC=C1,-,R946025,M1106737,-,-,2-benzylthiopyridine,Koerner,charochkina,A5793,-,-,-,3.23,Log unit,25,?C,n1ccccc1SCc1ccccc1,0
C(SC1=CC=NC=C1)C1=CC=CC=C1,-,R946026,M361001,-,-,4-benzylthiopyridine,Koerner,charochkina,A5793,-,-,-,5.41,Log unit,25,?C,n1ccc(SCc2ccccc2)cc1,0
BrC1=NC=CC=C1,-,R946027,M4499,-,-,2-Bromopyridine,Koerner,charochkina,A5793,-,-,-,0.8049999,Log unit,25,?C,n1c(Br)cccc1,2
NC1=CC=C(O)C2=C1C(=O)C1=CC=CC=C1C2=O,-,R945828,M18938,-,-,Disperse Red 15,Koerner,charochkina,A5793,-,-,-,0.78,Log unit,25,?C,Nc1ccc(O)c2C(=O)c3ccccc3C(=O)c12,1
NC1=CC=C(N)C2=C1C(=O)C1=CC=CC=C1C2=O,-,R945829,M19320,-,-,DISPERSE VIOLET 1,Koerner,charochkina,A5793,-,-,-,1.28,Log unit,25,?C,Nc1ccc(N)c2C(=O)c3ccccc3C(=O)c12,1
CNC1=CC=C(NC)C2=C1C(=O)C1=CC=CC=C1C2=O,-,R945830,M26944,-,-,Disperse Blue 14,Koerner,charochkina,A5793,-,-,-,1.8,Log unit,25,?C,N(c1ccc(NC)c2C(=O)c3ccccc3C(=O)c12)C,1
OCCNC1=CC=C(NCCO)C2=C1C(=O)C1=CC=CC=C1C2=O,-,R945831,M29409,-,-,Disperse Blue 23,Koerner,charochkina,A5793,-,-,-,0.97,Log unit,25,?C,N(c1ccc(NCCO)c2C(=O)c3ccccc3C(=O)c12)CCO,1
NN,-,R945832,M7742,-,-,HYDRAZINE,Koerner,charochkina,A5793,-,-,-,7.7,Log unit,25,?C,NN,0
N[NH3+],-,R945833,M7742,-,-,HYDRAZINE,Koerner,charochkina,A5793,-,-,-,-0.9,Log unit,25,?C,N[NH3+],0
CCNNCC,-,R945834,M25478,-,-,"N,N'-di-ethylhydrazine",Koerner,charochkina,A5793,-,-,-,7.48,Log unit,25,?C,N(CC)NCC,2
CNNC,-,R945835,M21465,-,-,"N,N'-di-methylhydrazine",Koerner,charochkina,A5793,-,-,-,7.32,Log unit,25,?C,N(C)NC,1
CC(N)=N,-,R945836,M999313,-,-,amidinomethane,Koerner,charochkina,A5793,-,-,-,12.25,Log unit,25,?C,N=C(N)C,0
NC(CC(N)=NO)=NO,-,R945837,M1106661,-,-,"1,3-diamino-1,3-bishydroxyiminopropane",Koerner,charochkina,A5793,-,-,-,4.43,Log unit,25,?C,C(=NO)(N)CC(=NO)N,1
NC(=NO)C(N)=NO,-,R945838,M27120,-,-,"1,2-diamino-1,2-bishydroxyiminoethane",Koerner,charochkina,A5793,-,-,-,2.6,Log unit,25,?C,ON=C(N)C(=NO)N,0
NC(CCC(N)=NO)=NO,-,R945839,M655335,-,-,"1,4-diamino-1,4-bishydroxyiminobutane",Koerner,charochkina,A5793,-,-,-,5.63,Log unit,25,?C,ON=C(N)CCC(=NO)N,0
NC(CCC(N)=[NH+]O)=NO,-,R945840,M655335,-,-,"1,4-diamino-1,4-bishydroxyiminobutane",Koerner,charochkina,A5793,-,-,-,3.3,Log unit,25,?C,O[NH+]=C(N)CCC(=NO)N,0
N=C1CCCC1,-,R945841,M1106662,-,-,cyclopentanimine,Koerner,charochkina,A5793,-,-,-,8.95,Log unit,25,?C,N=C1CCCC1,0
N=C1CCCCC1,-,R945842,M1106663,-,-,cyclohexanimine,Koerner,charochkina,A5793,-,-,-,9.15,Log unit,25,?C,N=C1CCCCC1,0
CN=C1CCCCC1C,-,R945843,M1106664,-,-,C-N-dimethylcyclohexanimine,Koerner,charochkina,A5793,-,-,-,9.47,Log unit,25,?C,C1(=NC)CCCCC1C,6
CC1CCCCC1=N,-,R945844,M1106665,-,-,C-methylcyclohexanimine,Koerner,charochkina,A5793,-,-,-,9.38,Log unit,25,?C,N=C1CCCCC1C,0
CN=C1CCCCC1,-,R945845,M1106666,-,-,N-methylcyclohexanimine,Koerner,charochkina,A5793,-,-,-,9.43,Log unit,25,?C,C1(=NC)CCCCC1,3
CCNC1=CC(CC(C)(C)C1)=NCC,-,R945846,M1106667,-,-,"1-ethylamino-3-ethylimino-5,5-dimethylcyclohex-1-ene",Koerner,charochkina,A5793,-,-,-,12.13,Log unit,25,?C,C1(=NCC)C=C(CC(C)(C)C1)NCC,9
CC(=N)NC1=CC=C(Cl)C=C1,-,R945847,M1106668,-,-,N-acetimido-4-chloroaniline,Koerner,charochkina,A5793,-,-,-,9.5,Log unit,25,?C,C(=N)(Nc1ccc(Cl)cc1)C,6
CCOC1=CC=C(NC(C)=NC2=CC=C(OCC)C=C2)C=C1,-,R945848,M18391,-,-,4-ethoxy-N-[1-(p-ethoxyphenylimino)ethyl]aniline,Koerner,charochkina,A5793,-,-,-,9.27,Log unit,25,?C,c1(ccc(cc1)OCC)N=C(Nc1ccc(OCC)cc1)C,2
ClC1=CC=C(C=NC2=CC=CC=C2)C=C1,-,R945849,M1106669,-,-,N-4-chlorobenzylideneaniline,Koerner,charochkina,A5793,-,-,-,2.8,Log unit,25,?C,C(=Nc1ccccc1)c1ccc(Cl)cc1,5
CC(NC1=CC=CC=C1)=NC1=CC=CC=C1,-,R945850,M22651,-,-,N-(1-phenyliminoethyl)aniline,Koerner,charochkina,A5793,-,-,-,8.298,Log unit,25,?C,c1(ccccc1)N=C(Nc1ccccc1)C,3
NC(=N)CC1=CC=CC=C1,-,R945851,M723353,-,-,amidinomethyl-benzzne,Koerner,charochkina,A5793,-,-,-,11.87,Log unit,25,?C,C(=N)(Cc1ccccc1)N,2
NC(=N)C1=CC=CC=C1,-,R945852,M25566,-,-,guanidinobenzene,Koerner,charochkina,A5793,-,-,-,11.3,Log unit,25,?C,C(=N)(c1ccccc1)N,1
NC(=N)C1=CC=C(O)C=C1,-,R945853,M491777,-,-,4-hydroxy-guanidinobenzene,Koerner,charochkina,A5793,-,-,-,12.5,Log unit,25,?C,C(=N)(c1ccc(O)cc1)N,1
NC(=N)C1=CC=C(C=C1)C([O-])=O,-,R945854,M272472,-,-,4-carboxy-guanidinobenzene,Koerner,charochkina,A5793,-,-,-,10.9,Log unit,25,?C,C(=N)(c1ccc(C(=O)[O-])cc1)N,1
COC1=CC=C(C=C1)C(N)=N,-,R945855,M1106671,-,-,4-methoxy-guanidinobenzene,Koerner,charochkina,A5793,-,-,-,11.8,Log unit,25,?C,C(=N)(c1ccc(OC)cc1)N,1
NC(=N)C1=CC=C(C=C1)N(=O)=O,-,R945856,M82036,-,-,4-nitro-guanidinobenzene,Koerner,charochkina,A5793,-,-,-,9.58,Log unit,25,?C,C(=N)(c1ccc(N(=O)=O)cc1)N,1
CC(O)(C(N)=N)C1=CC=CC=C1,-,R945857,M1106672,-,-,(1-amidino-1-hydroxy)ethylbenzene,Koerner,charochkina,A5793,-,-,-,10.96,Log unit,25,?C,C(=N)(C(c1ccccc1)(O)C)N,6
NC(=N)C(O)C1=CC=CC=C1,-,R945858,M1106673,-,-,(C-amidino-C-hydroxy)methylbenzene,Koerner,charochkina,A5793,-,-,-,11.1,Log unit,25,?C,C(=N)(C(c1ccccc1)O)N,6
CCC(O)(C(N)=N)C1=CC=CC=C1,-,R945859,M1106674,-,-,(1-amidineo-1-hydroxy)propylbenzene,Koerner,charochkina,A5793,-,-,-,11.4,Log unit,25,?C,C(=N)(C(c1ccccc1)(O)CC)N,6
NC(CC1=CC=CC=C1)=NO,-,R945860,M749937,-,-,(2-amino-2-hydroxyimino)ethylbenzene,Koerner,charochkina,A5793,-,-,-,5.2,Log unit,25,?C,C(=NO)(Cc1ccccc1)N,5
NC(=NO)C1=CC=CC=C1,-,R945861,M67198,-,-,C-amino-C-hydroxyiminoethylbenzene,Koerner,charochkina,A5793,-,-,-,4.79,Log unit,25,?C,C(=NO)(c1ccccc1)N,4
CC1=CC=CC=C1C(N)=NO,-,R945862,M1106675,-,-,1-(C-amino-C-hydroxyiminomethyl)-2-methylbenzene,Koerner,charochkina,A5793,-,-,-,3.99,Log unit,25,?C,C(=NO)(c1ccccc1C)N,4
CC1=CC=C(C=C1)C(N)=NO,-,R945863,M749762,-,-,1-(C-amino-C-hydroxyiminomethyl)-4-methylbenzene,Koerner,charochkina,A5793,-,-,-,5.1,Log unit,25,?C,C(=NO)(c1ccc(cc1)C)N,4
NC(=N)NC1=CC=C(Cl)C=C1,-,R945864,M183679,-,-,1-chloro-4-guanidinobenzene,Koerner,charochkina,A5793,-,-,-,10.9,Log unit,25,?C,C(=N)(Nc1ccc(Cl)cc1)N,6
ClC1=CC=CC=C1C(=N)C1=CC=CC=C1,-,R945865,M1106676,-,-,1-chloro-2-iminobenzylbenzene,Koerner,charochkina,A5793,-,-,-,5.9,Log unit,25,?C,C(=N)(c1c(Cl)cccc1)c1ccccc1,7
ClC1=CC=CC=C1C(=N)C1=CC=CC=C1,-,R945866,M1106676,-,-,1-chloro-3-iminobenzylbenzene,Koerner,charochkina,A5793,-,-,-,6,Log unit,25,?C,C(=N)(c1c(Cl)cccc1)c1ccccc1,7
CNC(=N)NC1=CC=C(Cl)C=C1,-,R945867,M1106677,-,-,1-chloro-4-N3-methylguanidinobenzene,Koerner,charochkina,A5793,-,-,-,11.15,Log unit,25,?C,C(=N)(Nc1ccc(Cl)cc1)NC,6
OC1=CC=C(C(=N)C2=CC=CC=C2)C(O)=C1,-,R945868,M1106678,-,-,"1,3-dihydroxy-4-iminobenzylbenzene",Koerner,charochkina,A5793,-,-,-,9.3,Log unit,25,?C,C(=N)(c1ccccc1)c1ccc(O)cc1O,4
OC1=CC(=CC=C1)C(=N)C1=CC=CC=C1,-,R945869,M1106679,-,-,1-hydroxy-3-iminobenzylbenzene,Koerner,charochkina,A5793,-,-,-,7,Log unit,25,?C,C(=N)(c1ccccc1)c1cccc(c1)O,4
OC1=CC=C(C=C1)C(=N)C1=CC=CC=C1,-,R945870,M1106680,-,-,1-hydroxy-4-iminobenzylbenzene,Koerner,charochkina,A5793,-,-,-,7.85,Log unit,25,?C,C(=N)(c1ccccc1)c1ccc(O)cc1,4
COC1=CC(=CC=C1O)C(=N)C1=CC=CC=C1,-,R945871,M1106681,-,-,1-hydroxy-4-iminobenzyl-3-methoxybenzene,Koerner,charochkina,A5793,-,-,-,8.3,Log unit,25,?C,C(=N)(c1ccccc1)c1ccc(O)c(c1)OC,4
N=C(C1=CC=CC=C1)C1=CC=CC=C1,-,R945872,M24351,-,-,iminobenzylbenzene,Koerner,charochkina,A5793,-,-,-,7.48,Log unit,25,?C,C(=N)(c1ccccc1)c1ccccc1,4
COC1=CC=C(C(=N)C2=CC=CC=C2)C(OC)=C1,-,R945873,M1106682,-,-,"1-iminobenzyl-2,4-dimethoxybenzene",Koerner,charochkina,A5793,-,-,-,8.3,Log unit,25,?C,C(=N)(c1ccccc1)c1ccc(OC)cc1OC,4
CC1=CC=C(C(=N)C2=CC=CC=C2)C(C)=C1,-,R945874,M1106683,-,-,"1-iminobenzyl-2,4-dimethylbenzene",Koerner,charochkina,A5793,-,-,-,7.5,Log unit,25,?C,C(=N)(c1ccccc1)c1ccc(C)cc1C,4
CC1=CC=C(C)C(=C1)C(=N)C1=CC=CC=C1,-,R945875,M1106684,-,-,"1-iminobenzyl-2,5-dimethylbenzene",Koerner,charochkina,A5793,-,-,-,7.5,Log unit,25,?C,C(=N)(c1ccccc1)c1cc(ccc1C)C,4
CC1=CC=CC(C)=C1C(=N)C1=CC=CC=C1,-,R945876,M35608,-,-,"1-iminobenzyl-2,6-dimethylbenzene",Koerner,charochkina,A5793,-,-,-,8,Log unit,25,?C,C(=N)(c1ccccc1)c1c(cccc1C)C,4
CC1=CC(=CC(C)=C1)C(=N)C1=CC=CC=C1,-,R945877,M1106685,-,-,"1-iminobenzyl-3,5-dimethylbenzene",Koerner,charochkina,A5793,-,-,-,7.1,Log unit,25,?C,C(=N)(c1ccccc1)c1cc(cc(c1)C)C,4
COC1=CC=CC=C1C(=N)C1=CC=CC=C1,-,R945878,M1106686,-,-,1-iminobenzyl-2-methoxybenzene,Koerner,charochkina,A5793,-,-,-,7.3,Log unit,25,?C,C(=N)(c1ccccc1)c1ccccc1OC,4
COC1=CC(=CC=C1)C(=N)C1=CC=CC=C1,-,R945879,M1106687,-,-,1-iminobenzyl-3-methoxybenzene,Koerner,charochkina,A5793,-,-,-,7.7,Log unit,25,?C,C(=N)(c1ccccc1)c1cccc(c1)OC,4
CC1=CC=CC=C1C(=N)C1=CC=CC=C1,-,R945880,M35606,-,-,1-iminobenzyl-2-methylbenzene,Koerner,charochkina,A5793,-,-,-,7.5,Log unit,25,?C,C(=N)(c1ccccc1)c1ccccc1C,4
COC(=N)C1=CC=CC=C1,-,R945881,M1106688,-,-,iminomethoxymethylbenzene,Koerner,charochkina,A5793,-,-,-,6.1,Log unit,25,?C,C(=N)(c1ccccc1)OC,4
OC1=CC2=C(C=CC=C2)C=C1C1=[NH+]CCN1,-,R945882,M33788,-,-,"Imidazoline, 2-[3-(2-hyddroxynaphthyl)]-",Koerner,charochkina,A5793,-,-,-,7.01,Log unit,25,?C,Oc1c(C2=[N+]CCN2)cc2ccccc2c1,14
NC(=N)NC(N)=N,-,R945883,M17099,-,-,DIGUANIDE,Koerner,charochkina,A5793,-,-,-,12.5,Log unit,25,?C,C(=N)(N)NC(=N)N,1
NC(=N)NC(N)=[NH2+],-,R945884,M17099,-,-,DIGUANIDE,Koerner,charochkina,A5793,-,-,-,3.4,Log unit,25,?C,C(=N)(NC(=[NH2+])N)N,4
NC(=N)NC(=N)NC1=CC2=C(C=C1)C=C1C=CC=CC1=C2,-,R945885,M1106691,-,-,N1-(2-anthryl)diguanide,Koerner,charochkina,A5793,-,-,-,11,Log unit,25,?C,C(=N)(Nc1cc2cc3ccccc3cc2cc1)NC(=N)N,3
NC(=N)NC(=N)NC1=CC2=C(C=C1)C=C1C=CC=CC1=C2,-,R945886,M1106691,-,-,N1-(2-anthryl)diguanide,Koerner,charochkina,A5793,-,-,-,10.4,Log unit,25,?C,C(=N)(NC(=N)Nc1cc2cc3ccccc3cc2cc1)N,6
NC(=N)NC(N)=NCC1=CC=CC=C1,-,R945887,M1106692,-,-,benzyl-diguanide,Koerner,charochkina,A5793,-,-,-,11.25,Log unit,25,?C,C(=N)(N)NC(=NCc1ccccc1)N,1
NC(=[NH2+])NC(N)=NCC1=CC=CC=C1,-,R945888,M1106692,-,-,benzyl-diguanide,Koerner,charochkina,A5793,-,-,-,2.7,Log unit,25,?C,C(=NCc1ccccc1)(NC(=[NH2+])N)N,4
CC(C)NC(=N)NC(=N)NC1=CC=C(Br)C=C1,-,R945889,M1106693,-,-,N1-(4-bromophenyl)-N5-isopropyl-diguanide,Koerner,charochkina,A5793,-,-,-,11.4,Log unit,25,?C,C(=N)(Nc1ccc(Br)cc1)NC(=N)NC(C)C,8
CC(C)NC(=[NH2+])NC(=N)NC1=CC=C(Br)C=C1,-,R945890,M1106693,-,-,N1-(4-bromophenyl)-N5-isopropyl-diguanide,Koerner,charochkina,A5793,-,-,-,2.2,Log unit,25,?C,C(=N)(Nc1ccc(Br)cc1)NC(=[NH2+])NC(C)C,8
CCCCN=C(N)NC(N)=N,-,R945891,M23298,-,-,butyl-diguanide,Koerner,charochkina,A5793,-,-,-,11.28,Log unit,25,?C,C(=N)(N)NC(=NCCCC)N,1
CCCCN=C(N)NC(N)=[NH2+],-,R945892,M23298,-,-,butyl-diguanide,Koerner,charochkina,A5793,-,-,-,2.92,Log unit,25,?C,C(=NCCCC)(NC(=[NH2+])N)N,4
NC(=[NH2+])NC(=N)NC1=CC=C(Cl)C=C1,-,R945893,M56033,-,-,N1-(4-chlrophenyl)-diguanide,Koerner,charochkina,A5793,-,-,-,2.2,Log unit,25,?C,C(=N)(NC(=[NH2+])N)Nc1ccc(Cl)cc1,4
CC(C)NC(=N)NC(N)=NC1=CC=C(Cl)C=C1,-,R945894,M10621,-,-,N2-(4-chlrophenyl)-N5-isopropyl-diguanide,Koerner,charochkina,A5793,-,-,-,10.4,Log unit,25,?C,C(=Nc1ccc(Cl)cc1)(N)NC(=N)NC(C)C,1
CC(C)NC(=[NH2+])NC(N)=NC1=CC=C(Cl)C=C1,-,R945895,M10621,-,-,N2-(4-chlrophenyl)-N5-isopropyl-diguanide,Koerner,charochkina,A5793,-,-,-,2.3,Log unit,25,?C,C(=Nc1ccc(Cl)cc1)(N)NC(=[NH2+])NC(C)C,1
CC(C)NC(=[NH2+])NC(=N)N(C)C1=CC=CC=C1,-,R945896,M1106694,-,-,N1-(4-chlrophenyl)-N5-isopropyl-N1-methyl-diguanide,Koerner,charochkina,A5793,-,-,-,2.4,Log unit,25,?C,C(=N)(N(c1ccccc1)C)NC(=[NH2+])NC(C)C,8
CN=C(NC(=N)NC(C)C)NC1=CC=CC=C1,-,R945897,M1106695,-,-,N1-(4-chlrophenyl)-N5-isopropyl-N2-methyl-diguanide,Koerner,charochkina,A5793,-,-,-,11.8,Log unit,25,?C,C(=NC)(Nc1ccccc1)NC(=N)NC(C)C,7
CN=C(NC(=[NH2+])NC(C)C)NC1=CC=CC=C1,-,R945898,M1106695,-,-,N1-(4-chlrophenyl)-N5-isopropyl-N2-methyl-diguanide,Koerner,charochkina,A5793,-,-,-,2.3,Log unit,25,?C,C(=NC)(Nc1ccccc1)NC(=[NH2+])NC(C)C,7
C[NH+]=C(NC(C)C)NC(=N)NC1=CC=CC=C1,-,R945899,M1106696,-,-,N1-(4-chlrophenyl)-N5-isopropyl-N4-methyl-diguanide,Koerner,charochkina,A5793,-,-,-,2,Log unit,25,?C,C(=N)(Nc1ccccc1)NC(=[NH+]C)NC(C)C,7
CN=C(NC(C)C)NC(=N)NC1=CC=CC=C1,-,R945900,M1106696,-,-,N1-(4-chlrophenyl)-N5-isopropyl-N4-methyl-diguanide,Koerner,charochkina,A5793,-,-,-,12.2,Log unit,25,?C,C(=N)(Nc1ccccc1)NC(=NC)NC(C)C,7
NC(=N)NC(N)=NC1CCCCC1,-,R945901,M1000961,-,-,cyclohexyl-diguanide,Koerner,charochkina,A5793,-,-,-,11.39,Log unit,25,?C,C(=N)(N)NC(=NC1CCCCC1)N,1
NC(=[NH2+])NC(N)=NC1CCCCC1,-,R945902,M1000961,-,-,cyclohexyl-diguanide,Koerner,charochkina,A5793,-,-,-,3.2,Log unit,25,?C,C(=NC1CCCCC1)(NC(=[NH2+])N)N,4
CCN(CC)C(=N)NC(N)=N,-,R945903,M1106697,-,-,N'-diethyl-diguanide,Koerner,charochkina,A5793,-,-,-,11.66,Log unit,25,?C,C(=N)(N)NC(=N)N(CC)CC,1
NC(=N)NC(=N)NCCNC(=N)NC(N)=N,-,R945904,M1106698,-,-,N-(diguanidoethylene)-diguanide,Koerner,charochkina,A5793,-,-,-,11.5,Log unit,25,?C,C(=N)(N)NC(=N)NCCNC(=N)NC(=N)N,1
NC(=[NH2+])NC(=N)NCCNC(=N)NC(N)=[NH2+],-,R945905,M1106698,-,-,N-(diguanidoethylene)-diguanide,Koerner,charochkina,A5793,-,-,-,2.6,Log unit,25,?C,C(=N)(NC(=[NH2+])N)NCCNC(=N)NC(=[NH2+])N,4
CN(C)C(=N)NC(N)=N,-,R945906,M13363,-,-,N'-dimethyl-diguanide,Koerner,charochkina,A5793,-,-,-,11.52,Log unit,25,?C,C(=N)(N)NC(=N)N(C)C,1
CN(C)C(=N)NC(N)=[NH2+],-,R945907,M13363,-,-,N'-dimethyl-diguanide,Koerner,charochkina,A5793,-,-,-,2.75,Log unit,25,?C,C(=N)(NC(=[NH2+])N)N(C)C,4
CCN=C(N)NC(N)=N,-,R945908,M1106699,-,-,N'-ethyl-diguanide,Koerner,charochkina,A5793,-,-,-,11.47,Log unit,25,?C,C(=N)(N)NC(=NCC)N,1
CCN=C(N)NC(N)=[NH2+],-,R945909,M1106699,-,-,N'-ethyl-diguanide,Koerner,charochkina,A5793,-,-,-,3.08,Log unit,25,?C,C(=NCC)(NC(=[NH2+])N)N,4
CCCCCCN=C(N)NC(N)=N,-,R945910,M110027,-,-,hexyl-diguanide,Koerner,charochkina,A5793,-,-,-,11.44,Log unit,25,?C,C(=N)(N)NC(=NCCCCCC)N,1
CCCCCCN=C(N)NC(N)=[NH2+],-,R945911,M110027,-,-,cyclohexyl-diguanide,Koerner,charochkina,A5793,-,-,-,3.3,Log unit,25,?C,C(=NCCCCCC)(NC(=[NH2+])N)N,4
CC(C)NC(=N)NC(=N)NC1=CC=C(I)C=C1,-,R945912,M1106700,-,-,N1-(4-Iodophenyl)-N5-isopropyl-diguanide,Koerner,charochkina,A5793,-,-,-,11,Log unit,25,?C,C(=N)(Nc1ccc(I)cc1)NC(=N)NC(C)C,8
CC(C)N=C(N)NC(N)=N,-,R945913,M1106701,-,-,isoprpyl-diguanide,Koerner,charochkina,A5793,-,-,-,11.35,Log unit,25,?C,C(=N)(N)NC(=NC(C)C)N,1
CC(C)N=C(N)NC(N)=[NH2+],-,R945914,M1106701,-,-,isoprpyl-diguanide,Koerner,charochkina,A5793,-,-,-,3.1,Log unit,25,?C,C(=NC(C)C)(NC(=[NH2+])N)N,4
CC(C)NC(=N)NC(=N)NC1=CC=CC=C1,-,R945915,M1106702,-,-,N1-isopropyl-(4-Iodophenyl)-N5-diguanide,Koerner,charochkina,A5793,-,-,-,11.5,Log unit,25,?C,C(=N)(Nc1ccccc1)NC(=N)NC(C)C,7
CC(C)NC(=[NH2+])NC(=N)NC1=CC=CC=C1,-,R945916,M1106702,-,-,N1-isopropyl-(4-Iodophenyl)-N5-diguanide,Koerner,charochkina,A5793,-,-,-,1.9,Log unit,25,?C,C(=N)(Nc1ccccc1)NC(=[NH2+])NC(C)C,7
CN=C(N)NC(N)=N,-,R945917,M1106703,-,-,N'-methyl-diguanide,Koerner,charochkina,A5793,-,-,-,11.42,Log unit,25,?C,C(=N)(N)NC(=NC)N,1
CN=C(N)NC(N)=[NH2+],-,R945918,M1106703,-,-,N'-methyl-diguanide,Koerner,charochkina,A5793,-,-,-,3,Log unit,25,?C,C(=NC)(NC(=[NH2+])N)N,4
NC(=N)NC(N)=NC1=CC=CC2=C1C=CC=C2,-,R945919,M32844,-,-,napthyl-diguanide,Koerner,charochkina,A5793,-,-,-,10.24,Log unit,25,?C,C(=N)(N)NC(=Nc1cccc2ccccc12)N,1
NC(=N)NC(N)=[NH+]C1=CC=CC2=C1C=CC=C2,-,R945920,M32844,-,-,napthyl-diguanide,Koerner,charochkina,A5793,-,-,-,2.04,Log unit,25,?C,C(=N)(N)NC(=[NH+]c1cccc2ccccc12)N,1
NC(=N)NC(N)=NC1=CC2=C(C=CC=C2)C=C1,-,R945921,M30277,-,-,2-napthyl-diguanide,Koerner,charochkina,A5793,-,-,-,10.7,Log unit,25,?C,c1(cc2ccccc2cc1)N=C(N)NC(=N)N,1
NC(=N)NC(N)=NC1=CC2=C(C=CC=C2)C=C1,-,R945922,M30277,-,-,2-napthyl-diguanide,Koerner,charochkina,A5793,-,-,-,10.7,Log unit,25,?C,C(=N)(NC(=Nc1cc2ccccc2cc1)N)N,6
NC(=[NH2+])NC(=N)NC1=CC=CC=C1,-,R945923,M1655,-,-,DIGUANIDE,Koerner,charochkina,A5793,-,-,-,2.1,Log unit,25,?C,C(=N)(NC(=[NH2+])N)Nc1ccccc1,4
CCCN=C(N)NC(N)=N,-,R945924,M1106704,-,-,propyl-diguanide,Koerner,charochkina,A5793,-,-,-,11.35,Log unit,25,?C,C(=N)(N)NC(=NCCC)N,1
CCCN=C(N)NC(N)=[NH2+],-,R945925,M1106704,-,-,isoprpyl-diguanide,Koerner,charochkina,A5793,-,-,-,3.1,Log unit,25,?C,C(=NCCC)(NC(=[NH2+])N)N,4
NC(CCC(N)=[NH+]O)=NO,-,R945926,M655335,-,-,"1,4-diamino-1,4-bishydroxyiminobutane",Koerner,charochkina,A5793,-,-,-,3.3,Log unit,25,?C,C(=NO)(CCC(=[NH+]O)N)N,6
NC(N)=N,-,R945927,M18856,-,-,GUANIDINE,Koerner,charochkina,A5793,-,-,-,13.9,Log unit,25,?C,C(=N)(N)N,1
CCC1CCCNC1O,-,R945728,M1018237,-,-,3-ethyl-2-hydroxypiperidine,Koerner,charochkina,A5793,-,-,-,9.09,Log unit,25,?C,N1C(O)C(CCC1)CC,2
CCN1CCCCC1C,-,R945729,M134263,-,-,1-ETHYL-2-METHYLPIPERIDINE,Koerner,charochkina,A5793,-,-,-,10.66,Log unit,25,?C,N1(CCCCC1C)CC,4
CC1CCCC(C)N1CC(C)(C)O,-,R945730,M1107223,-,-,"1-(2-hydroxy-2-methyl)propyl-cis-2,6-dimethylpiperidine",Koerner,charochkina,A5793,-,-,-,10.5,Log unit,25,?C,N1(C(CCCC1C)C)CC(O)(C)C,7
OC(CN1CCCCC1)CN1CCCCC1,-,R945731,M1107224,-,-,1-(2-hydroxy-3-piperidino)propylpiperidine,Koerner,charochkina,A5793,-,-,-,9.18,Log unit,25,?C,N1(CCCCC1)CC(O)CN1CCCCC1,4
CC(C)CN1CCCCC1,-,R945732,M1107225,-,-,1-isobutylpiperidine,Koerner,charochkina,A5793,-,-,-,10.44,Log unit,25,?C,N1(CCCCC1)CC(C)C,4
CC(C)C1CCCNC1,-,R945733,M1018240,-,-,3-isopropylpiperidine,Koerner,charochkina,A5793,-,-,-,10.75,Log unit,25,?C,N1CCCC(C1)C(C)C,0
CC(C)C1CCNCC1,-,R945734,M1018273,-,-,4-isopropylpiperidine,Koerner,charochkina,A5793,-,-,-,10.85,Log unit,25,?C,N1CCC(C(C)C)CC1,0
CN1CCCCC1,-,R945735,M8397,-,-,1-Methylpiperidine,Koerner,charochkina,A5793,-,-,-,10.135,Log unit,25,?C,N1(CCCCC1)C,4
CC1CCCCN1,-,R945736,M18679,-,-,2-METHYLPIPERIDINE,Koerner,charochkina,A5793,-,-,-,11.015,Log unit,25,?C,N1CCCCC1C,0
CC1CCCNC1,-,R945737,M67291,-,-,3-Methylpiperidine,Koerner,charochkina,A5793,-,-,-,11.07,Log unit,25,?C,N1CCCC(C1)C,0
CN1CCC(CC1)(C1=CC=CC=C1)C1=CC=CC=C1,-,R945738,M37489,-,-,"1-methyl-4,4-diphenylpiperidine",Koerner,charochkina,A5793,-,-,-,8.65,Log unit,25,?C,N1(CCC(c2ccccc2)(CC1)c1ccccc1)C,7
CC1CCNCC1,-,R945739,M22831,-,-,4-Methylpiperidine,Koerner,charochkina,A5793,-,-,-,10.78,Log unit,25,?C,N1CCC(C)CC1,0
CC(C=C(C1=CC=CS1)C1=CC=CS1)N1CCCCC1,-,R945740,M1107226,-,-,"1-(1-methyl-3,3-dithienyl)prop-2-enylpiperidine",Koerner,charochkina,A5793,-,-,-,8.41,Log unit,25,?C,N1(C(C=C(c2sccc2)c2sccc2)C)CCCCC1,13
CC(C=C(C1=CC=CS1)C1=CC=CS1)N1CCCC(C)C1,-,R945741,M1107227,-,-,"3-methyl-1-(1-methyl-3,3-dithienyl)prop-2-enylpiperidine",Koerner,charochkina,A5793,-,-,-,8.23,Log unit,25,?C,N1(C(C=C(c2sccc2)c2sccc2)C)CC(CCC1)C,13