"SMILES","CASRN","RECORDID","MOLECULEID","EXTERNALID","N","NAME","NAME","INTRODUCER","MODIFIER","ARTICLEID","PUBMEDID","PAGE","TABLE","pKa (smiles as ob. cond.) {measured}","UNIT {pKa (smiles as ob. cond.)}","pKa (smiles as ob. cond.) {measured, converted}","UNIT {pKa (smiles as ob. cond.)}","Ionizable centre (smiles)","IC group detected","AtomNR of IC","groupsAndICs","IC smiles given","IC group given","Temperature","UNIT {Temperature}","MultiGroupDetection","COMMENTS","INCHI_KEY"
"OC1C(Br)CC(Br)CC1Br","118-79-6","R1150485","M740585","-","-","NSC2136 2,4,6-tribromophenol","-","Koerner","Koerner","A5912","-","-","-","6.8","Log unit","6.8","Log unit","OC1C(CC(CC1Br)Br)Br","phenol","0","{phenol=[0]}","OC1=C(Br)C=C(Br)C=C1Br","","","-","","-","LWHUTCZCZCUVNY-UHFFFAOYSA"
"COC1CCCC(C=O)C1O","148-53-8","R1150486","M740539","-","-","NSC2150 2-hydroxy-3-methoxybenzaldehyde","-","Koerner","Koerner","A5912","-","-","-","7.91","Log unit","7.91","Log unit","OC1C(C=O)CCCC1OC","phenol","10","{phenol=[10]}","COC1=CC=CC(=C1O)C=O","","","-","","-","VJXJBKYAQQXQBS-UHFFFAOYSA"
"OC1C(Cl)CC(Cl)CC1Cl","88-06-2","R1150487","M740571","-","-","NSC2165 2,4,6-trichlorophenol","-","Koerner","Koerner","A5912","-","-","-","6.23","Log unit","6.23","Log unit","OC1C(Cl)CC(Cl)CC1Cl","phenol","0","{phenol=[0]}","OC1=C(Cl)C=C(Cl)C=C1Cl","","","-","","-","MJFGCKKNKDCVNP-UHFFFAOYSA"
"CC(C)C1CCCC(O)C1","618-45-1","R1150488","M740524","-","-","NSC2209 3-isopropylphenol","-","Koerner","Koerner","A5912","-","-","-","10.2","Log unit","10.2","Log unit","OC1CC(C(C)C)CCC1","phenol","6","{phenol=[6]}","CC(C)C1=CC(=CC=C1)O","","","-","","-","WMLDVNFSAVPBBH-UHFFFAOYSA"
"OC1C(Cl)CC(Cl)C(Cl)C1Cl","58-90-2","R1150489","M740563","-","-","NSC2428 2,3,4,6-tetrachlorophenol","-","Koerner","Koerner","A5912","-","-","-","5.22","Log unit","5.22","Log unit","OC1C(C(Cl)C(CC1Cl)Cl)Cl","phenol","5","{phenol=[5]}","OC1=C(Cl)C=C(Cl)C(=C1Cl)Cl","","","-","","-","YJQLSAFGDJERDH-UHFFFAOYSA"
"CC(=O)C1CCCC(O)C1","121-71-1","R1150490","M740507","-","-","NSC2440 1-(3-hydroxyphenyl)ethanone","-","Koerner","Koerner","A5912","-","-","-","9.25","Log unit","9.25","Log unit","OC1CC(C(=O)C)CCC1","phenol","6","{phenol=[6]}","CC(=O)C1=CC(=CC=C1)O","","","-","","-","UDZMPUBATBDTEM-UHFFFAOYSA"
"CC1CCC(C)C(O)C1","95-87-4","R1150491","M73434","-","-","NSC2599 2,5-dimethylphenol","-","Koerner","Koerner","A5912","-","-","-","10.4","Log unit","10.4","Log unit","OC1C(C)CCC(C1)C","phenol","3","{phenol=[3]}","CC1=CC(=C(C)C=C1)O","","","-","","-","RUADGOLRFXTMCY-UHFFFAOYSA"
"CC1CC(Cl)CCC1O","1570-64-5","R1150492","M740624","-","-","NSC2851 4-chloro-2-methylphenol","-","Koerner","Koerner","A5912","-","-","-","9.71","Log unit","9.71","Log unit","OC1C(C)CC(CC1)Cl","phenol","3","{phenol=[3]}","CC1=C(O)C=CC(=C1)Cl","","","-","","-","ZSHYOHUUJJFXNL-UHFFFAOYSA"
"OC1CCCCC1Cl","95-57-8","R1150493","M31363","-","-","NSC2870 2-chlorophenol","-","Koerner","Koerner","A5912","-","-","-","8.56","Log unit","8.56","Log unit","OC1C(CCCC1)Cl","phenol","0","{phenol=[0]}","OC1=C(Cl)C=CC=C1","","","-","","-","NYEWDMNOXFGGDX-UHFFFAOYSA"
"OC1CCC(Cl)CC1","106-48-9","R1150494","M37231","-","-","NSC2877 4-chlorophenol","-","Koerner","Koerner","A5912","-","-","-","9.41","Log unit","9.41","Log unit","OC1CCC(Cl)CC1","phenol","0","{phenol=[0]}","OC1=CC=C(Cl)C=C1","","","-","","-","HVPIAXWCSPHTAY-UHFFFAOYSA"
"CC1CCCC(Cl)C1O","87-64-9","R1150495","M740566","-","-","NSC2878 2-chloro-6-methylphenol","-","Koerner","Koerner","A5912","-","-","-","8.69","Log unit","8.69","Log unit","OC1C(C)CCCC1Cl","phenol","3","{phenol=[3]}","CC1=C(O)C(=CC=C1)Cl","","","-","","-","FOYLSKYNHTUDOW-UHFFFAOYSA"
"OC1CCC(Cl)CC1Cl","120-83-2","R1150496","M740588","-","-","NSC2879 2,4-dichlorophenol","-","Koerner","Koerner","A5912","-","-","-","7.89","Log unit","7.89","Log unit","OC1C(Cl)CC(CC1)Cl","phenol","0","{phenol=[0]}","OC1=C(Cl)C=C(Cl)C=C1","","","-","","-","VOLCRPGSZZJPFM-UHFFFAOYSA"
"OC1C(CC(CC1[N+]([O-])=O)[N+]([O-])=O)C1CCCCC1","731-92-0","R1150497","M740592","-","-","NSC2880 3,5-bis(hydroxy(oxido)amino)[1,1'-biphenyl]-2-ol","-","Koerner","Koerner","A5912","-","-","-","3.85","Log unit","3.85","Log unit","OC1C(CC([N+](=O)[O-])CC1[N+](=O)[O-])C1CCCCC1","phenol","5","{phenol=[5]}","OC1=C(C=C(C=C1[N+]([O-])=O)[N+]([O-])=O)C2=CC=CC=C2","","","-","","-","HMGBVNHZPVKJQU-UHFFFAOYSA"
"NC(=O)C1CCCCC1O","65-45-2","R1150498","M740537","-","-","NSC3115 salicylamide","-","Koerner","Koerner","A5912","-","-","-","8.37","Log unit","8.37","Log unit","OC1C(C(=O)N)CCCC1","phenol","5","{phenol=[5]}","NC(=O)C1=C(O)C=CC=C1","","","-","","-","ZYAHCVLOLCHGMC-UHFFFAOYSA"
"CC1CCC(C(O)C1)[N+]([O-])=O","700-38-9","R1150499","M740616","-","-","NSC3142 2-(hydroxy(oxido)amino)-5-methylphenol","-","Koerner","Koerner","A5912","-","-","-","7.41","Log unit","7.41","Log unit","OC1C([N+](=O)[O-])CCC(C)C1","phenol","5","{phenol=[5]}","CC1=CC(=C(C=C1)[N+]([O-])=O)O","","","-","","-","GTBGIRRBEZOYMA-UHFFFAOYSA"
"OC1CCC(CC1)\N=N\C1CCCCC1","1689-82-3","R1150500","M1154393","-","-","NSC3177 4-(phenyldiazenyl)phenol","-","Koerner","Koerner","A5912","-","-","-","8.2","Log unit","8.2","Log unit","OC1CCC(CC1)N=NC1CCCCC1","phenol","0","{phenol=[0]}","OC1=CC=C(C=C1)N=NC2=CC=CC=C2","","","-","","-","RRIIXLIMSICAOL-BUHFOSPRSA"
"OC1CCCC(C1)C=O","100-83-4","R1150501","M740503","-","-","NSC3504 3-hydroxybenzaldehyde","-","Koerner","Koerner","A5912","-","-","-","8.98","Log unit","8.98","Log unit","OC1CC(C=O)CCC1","phenol","8","{phenol=[8]}","OC1=CC=CC(=C1)C=O","","","-","","-","XZCHSPPQZUOKRM-UHFFFAOYSA"
"CC1CCC(O)CC1","106-44-5","R1150502","M6963","-","-","NSC3696 p-cresol","-","Koerner","Koerner","A5912","-","-","-","10.3","Log unit","10.3","Log unit","OC1CCC(CC1)C","phenol","0","{phenol=[0]}","CC1=CC=C(O)C=C1","","","-","","-","MQWCXKGKQLNYQG-UHFFFAOYSA"
"CC(=O)C1CCC(O)CC1","99-93-4","R1150503","M740502","-","-","NSC3698 1-(4-hydroxyphenyl)ethanone","-","Koerner","Koerner","A5912","-","-","-","8.05","Log unit","8.05","Log unit","OC1CCC(C(=O)C)CC1","phenol","9","{phenol=[9]}","CC(=O)C1=CC=C(O)C=C1","","","-","","-","LDHQMPWYKOPGCI-UHFFFAOYSA"
"OCC1CCCCC1O","90-01-7","R1150504","M1017990","-","-","NSC3814 2-(hydroxymethyl)phenol","-","Koerner","Koerner","A5912","-","-","-","9.84","Log unit","9.84","Log unit","OC1C(CO)CCCC1","phenol","8","{phenol=[8]}","OCC1=C(O)C=CC=C1","","","-","","-","OHWMJHMSUDKMGL-UHFFFAOYSA"
"COC1CCCCC1O","90-05-1","R1150505","M72149","-","-","NSC3815 2-methoxyphenol","-","Koerner","Koerner","A5912","-","-","-","9.98","Log unit","9.98","Log unit","OC1C(OC)CCCC1","phenol","4","{phenol=[4]}","COC1=C(O)C=CC=C1","","","-","","-","DCQQZLGQRIVCNH-UHFFFAOYSA"
"CC1CCC(O)C(C)C1","105-67-9","R1150506","M99214","-","-","NSC3829 2,4-dimethylphenol","-","Koerner","Koerner","A5912","-","-","-","10.6","Log unit","10.6","Log unit","OC1C(C)CC(CC1)C","phenol","3","{phenol=[3]}","CC1=CC(=C(O)C=C1)C","","","-","","-","CKPQAKDCQGMTSO-UHFFFAOYSA"
"CC(=O)NC1CCC(O)CC1","103-90-2","R1150507","M81153","-","-","NSC3991 N-(4-hydroxyphenyl)acetamide","-","Koerner","Koerner","A5912","-","-","-","9.38","Log unit","9.38","Log unit","OC1CCC(NC(=O)C)CC1","phenol","7","{phenol=[7]}","CC(=O)NC1=CC=C(O)C=C1","","","-","","-","HWAFCRWGGRVEQL-UHFFFAOYSA"
"OC1C(Cl)CC(CC1Cl)[N+]([O-])=O","618-80-4","R1150508","M740611","-","-","NSC4123 2,6-dichloro-4-(hydroxy(oxido)amino)phenol","-","Koerner","Koerner","A5912","-","-","-","3.55","Log unit","3.55","Log unit","OC1C(CC([N+](=O)[O-])CC1Cl)Cl","phenol","8","{phenol=[8]}","OC1=C(Cl)C=C(C=C1Cl)[N+]([O-])=O","","","-","","-","FOXAPTZIGWKECZ-UHFFFAOYSA"
"CC1CC(O)CCC1Cl","59-50-7","R1150509","M740496","-","-","NSC4166 4-chloro-3-methylphenol","-","Koerner","Koerner","A5912","-","-","-","9.55","Log unit","9.55","Log unit","OC1CCC(C(C)C1)Cl","phenol","8","{phenol=[8]}","CC1=C(Cl)C=CC(=C1)O","","","-","","-","ARZZXRALUJNIFU-UHFFFAOYSA"
"CCOC1CCCC(O)C1","621-34-1","R1150510","M740526","-","-","NSC4875 3-ethoxyphenol","-","Koerner","Koerner","A5912","-","-","-","9.65","Log unit","9.65","Log unit","OC1CC(OCC)CCC1","phenol","9","{phenol=[9]}","CCOC1=CC(=CC=C1)O","","","-","","-","VMIHDEMXNIQISM-UHFFFAOYSA"
"COC1CCC(O)CC1","150-76-5","R1150511","M740509","-","-","NSC4960 4-methoxyphenol","-","Koerner","Koerner","A5912","-","-","-","10.1","Log unit","10.1","Log unit","OC1CCC(OC)CC1","phenol","8","{phenol=[8]}","COC1=CC=C(O)C=C1","","","-","","-","PFTGXSGDFZZZFY-UHFFFAOYSA"
"CC(C)C1CC(Cl)C(C)CC1O","89-68-9","R1150512","M740572","-","-","NSC4964 4-chloro-2-isopropyl-5-methylphenol","-","Koerner","Koerner","A5912","-","-","-","9.98","Log unit","9.98","Log unit","OC1C(C(C)C)CC(C(C)C1)Cl","phenol","5","{phenol=[5]}","CC(C)C1=C(O)C=C(C)C(=C1)Cl","","","-","","-","DPHRWZBMVKKIKM-UHFFFAOYSA"
"CCC(C)(C)C1CCC(O)CC1","80-46-6","R1150513","M75285","-","-","NSC4965 4-tert-pentylphenol","-","Koerner","Koerner","A5912","-","-","-","10.4","Log unit","10.4","Log unit","OC1CCC(C(C)(CC)C)CC1","phenol","9","{phenol=[9]}","CCC(C)(C)C1=CC=C(O)C=C1","","","-","","-","VDQZABQVXYELSI-UHFFFAOYSA"
"COC1CC(C)CCC1O","93-51-6","R1150514","M740574","-","-","NSC4969 2-methoxy-4-methylphenol","-","Koerner","Koerner","A5912","-","-","-","10.3","Log unit","10.3","Log unit","OC1C(OC)CC(CC1)C","phenol","4","{phenol=[4]}","COC1=C(O)C=CC(=C1)C","","","-","","-","MJFODDFQZPOTGC-UHFFFAOYSA"
"OC1CCC(Br)CC1","106-41-2","R1150515","M740505","-","-","NSC4970 4-bromophenol","-","Koerner","Koerner","A5912","-","-","-","9.17","Log unit","9.17","Log unit","OC1CCC(CC1)Br","phenol","1","{phenol=[1]}","OC1=CC=C(Br)C=C1","","","-","","-","GCSDUESLOKFUOP-UHFFFAOYSA"
"CC1CC(O)CC(C)C1Cl","88-04-0","R1150516","M740498","-","-","NSC4971 4-chloro-3,5-dimethylphenol","-","Koerner","Koerner","A5912","-","-","-","9.7","Log unit","9.7","Log unit","OC1CC(C)C(Cl)C(C1)C","phenol","4","{phenol=[4]}","CC1=C(Cl)C(=CC(=C1)O)C","","","-","","-","UPYASADFRDFPTA-UHFFFAOYSA"
"CC(C)C1CCCCC1O","88-69-7","R1150517","M65182","-","-","NSC5103 2-isopropylphenol","-","Koerner","Koerner","A5912","-","-","-","10.5","Log unit","10.5","Log unit","OC1C(C(C)C)CCCC1","phenol","5","{phenol=[5]}","CC(C)C1=C(O)C=CC=C1","","","-","","-","IXVGVVQGNQZQGD-UHFFFAOYSA"
"CC(C)C1CCCC(C(C)C)C1O","2078-54-8","R1150518","M740627","-","-","NSC5105 2,6-diisopropylphenol","-","Koerner","Koerner","A5912","-","-","-","11.1","Log unit","11.1","Log unit","OC1C(C(C)C)CCCC1C(C)C","phenol","5","{phenol=[5]}","CC(C)C1=C(O)C(=CC=C1)C(C)C","","","-","","-","XUDJZJMNVZHIJU-UHFFFAOYSA"
"CC1CC(C)C(C)C(O)C1","697-82-5","R1150519","M740615","-","-","NSC5296 2,3,5-trimethylphenol","-","Koerner","Koerner","A5912","-","-","-","10.7","Log unit","10.7","Log unit","OC1CC(C)CC(C1C)C","phenol","9","{phenol=[9]}","CC1=CC(=C(C)C(=C1)O)C","","","-","","-","ZXMVYTOLDFBARW-UHFFFAOYSA"
"CC1CC(C)C(O)C(C)C1","527-60-6","R1150520","M740597","-","-","NSC5353 2,4,6-trimethylphenol","-","Koerner","Koerner","A5912","-","-","-","10.9","Log unit","10.9","Log unit","OC1C(C)CC(C)CC1C","phenol","3","{phenol=[3]}","CC1=CC(=C(O)C(=C1)C)C","","","-","","-","XUKYNHXGHASYPE-UHFFFAOYSA"
"CC1CCC(O)C(C1)[N+]([O-])=O","119-33-5","R1150521","M740587","-","-","NSC5387 2-(hydroxy(oxido)amino)-4-methylphenol","-","Koerner","Koerner","A5912","-","-","-","7.6","Log unit","7.6","Log unit","OC1C([N+](=O)[O-])CC(CC1)C","phenol","5","{phenol=[5]}","CC1=CC(=C(O)C=C1)[N+]([O-])=O","","","-","","-","SQIDBBONNUYMMW-UHFFFAOYSA"
"OC1C(Br)C(Br)C(Br)C(Br)C1Br","608-71-9","R1150522","M740605","-","-","NSC5717 2,3,4,5,6-pentabromophenol","-","Koerner","Koerner","A5912","-","-","-","4.62","Log unit","4.62","Log unit","OC1C(C(C(C(C1Br)Br)Br)Br)Br","phenol","1","{phenol=[1]}","OC1=C(Br)C(=C(Br)C(=C1Br)Br)Br","","","-","","-","PIJNILJGWOTZFY-UHFFFAOYSA"
"OC1C(CC(Cl)CC1[N+]([O-])=O)[N+]([O-])=O","88-87-9","R1150523","M740568","-","-","NSC6212 4-chloro-2,6-bis(hydroxy(oxido)amino)phenol","-","Koerner","Koerner","A5912","-","-","-","2.96","Log unit","2.96","Log unit","OC1C([N+](=O)[O-])CC(CC1[N+](=O)[O-])Cl","phenol","5","{phenol=[5]}","OC1=C(C=C(Cl)C=C1[N+]([O-])=O)[N+]([O-])=O","","","-","","-","MXCCXOYADXHVJJ-UHFFFAOYSA"
"OC1CCC(Br)CC1Br","615-58-7","R1150524","M740610","-","-","NSC6213 2,4-dibromophenol","-","Koerner","Koerner","A5912","-","-","-","7.79","Log unit","7.79","Log unit","OC1C(CC(CC1)Br)Br","phenol","3","{phenol=[3]}","OC1=C(Br)C=C(Br)C=C1","","","-","","-","YHGLNJGGYVFJHH-UHFFFAOYSA"
"OC1C(Br)CCCC1Br","608-33-3","R1150525","M740606","-","-","NSC6214 2,6-dibromophenol","-","Koerner","Koerner","A5912","-","-","-","6.67","Log unit","6.67","Log unit","OC1C(CCCC1Br)Br","phenol","0","{phenol=[0]}","OC1=C(Br)C=CC=C1Br","","","-","","-","PKYAUOASFAUOJQ-UHFFFAOYSA"
"OC1C(CCCC1[N+]([O-])=O)[N+]([O-])=O","573-56-8","R1150526","M740601","-","-","NSC6215 2,6-bis(hydroxy(oxido)amino)phenol","-","Koerner","Koerner","A5912","-","-","-","3.97","Log unit","3.97","Log unit","OC1C([N+](=O)[O-])CCCC1[N+](=O)[O-]","phenol","5","{phenol=[5]}","OC1=C(C=CC=C1[N+]([O-])=O)[N+]([O-])=O","","","-","","-","MIVRSTQZEOJACP-UHFFFAOYSA"
"OC1CC(Cl)CCC1Cl","583-78-8","R1150527","M740603","-","-","NSC6296 2,5-dichlorophenol","-","Koerner","Koerner","A5912","-","-","-","7.51","Log unit","7.51","Log unit","OC1C(Cl)CCC(C1)Cl","phenol","0","{phenol=[0]}","OC1=C(Cl)C=CC(=C1)Cl","","","-","","-","PSIRBPJKAHCJRD-UHFFFAOYSA"
"COC1CC(CCC1O)\C=C\C","97-54-1","R1150528","M740579","-","-","NSC6769 2-methoxy-4-(1-propenyl)phenol","-","Koerner","Koerner","A5912","-","-","-","9.88","Log unit","9.88","Log unit","OC1CCC(CC1OC)C=CC","phenol","11","{phenol=[11]}","COC1=CC(=CC=C1O)/C=C\C","","","-","","-","GLTQHEGOKUWTBT-ONEGZZNKSA"
"OC1CCCCC1Br","95-56-7","R1150529","M740576","-","-","NSC6970 2-bromophenol","-","Koerner","Koerner","A5912","-","-","-","8.45","Log unit","8.45","Log unit","OC1C(CCCC1)Br","phenol","3","{phenol=[3]}","OC1=C(Br)C=CC=C1","","","-","","-","AAMCLCZHZXKWRV-UHFFFAOYSA"
"OC1C(CC(CC1[N+]([O-])=O)[N+]([O-])=O)C1CCCCC1","131-89-5","R1150530","M740592","-","-","NSC7739 2-cyclohexyl-4,6-bis(hydroxy(oxido)amino)phenol","-","Koerner","Koerner","A5912","-","-","-","4.52","Log unit","4.52","Log unit","OC1C(CC([N+](=O)[O-])CC1[N+](=O)[O-])C1CCCCC1","phenol","5","{phenol=[5]}","OC1=C(C=C(C=C1[N+]([O-])=O)[N+]([O-])=O)C2CCCCC2","","","-","","-","HMGBVNHZPVKJQU-UHFFFAOYSA"
"CC1CCCC(O)C1","108-39-4","R1150531","M22043","-","-","NSC8768 m-cresol","-","Koerner","Koerner","A5912","-","-","-","10.1","Log unit","10.1","Log unit","OC1CC(C)CCC1","phenol","4","{phenol=[4]}","CC1=CC(=CC=C1)O","","","-","","-","HTSABYAWKQAHBT-UHFFFAOYSA"
"CCC1CCCC(O)C1","620-17-7","R1150532","M740525","-","-","NSC8873 3-ethylphenol","-","Koerner","Koerner","A5912","-","-","-","9.9","Log unit","9.9","Log unit","OC1CC(CC)CCC1","phenol","5","{phenol=[5]}","CCC1=CC(=CC=C1)O","","","-","","-","UNIOXDKEUNVBAC-UHFFFAOYSA"
"CCC1CC(C)CC(O)C1","698-71-5","R1150533","M740531","-","-","NSC8885 3-ethyl-5-methylphenol","-","Koerner","Koerner","A5912","-","-","-","10.1","Log unit","10.1","Log unit","OC1CC(CC(CC)C1)C","phenol","9","{phenol=[9]}","CCC1=CC(=CC(=C1)O)C","","","-","","-","BIQYABCHHAIUDX-UHFFFAOYSA"
"COC1CC(CC=C)CCC1O","97-53-0","R1150534","M740580","-","-","NSC8895 4-allyl-2-methoxyphenol","-","Koerner","Koerner","A5912","-","-","-","10.2","Log unit","10.2","Log unit","OC1CCC(CC1OC)CC=C","phenol","11","{phenol=[11]}","COC1=CC(=CC=C1O)CC=C","","","-","","-","CULSUFGNFKVOFA-UHFFFAOYSA"
"CC1CC(C)CC(O)C1","108-68-9","R1150535","M30314","-","-","NSC9268 3,5-dimethylphenol","-","Koerner","Koerner","A5912","-","-","-","10.2","Log unit","10.2","Log unit","OC1CC(CC(C)C1)C","phenol","8","{phenol=[8]}","CC1=CC(=CC(=C1)O)C","","","-","","-","WIYNOPYNRFPWNB-UHFFFAOYSA"
"OC1CCCC(C1)C(F)(F)F","98-17-9","R1150536","M740501","-","-","NSC9884 3-(trifluoromethyl)phenol","-","Koerner","Koerner","A5912","-","-","-","8.95","Log unit","8.95","Log unit","OC1CC(C(F)(F)F)CCC1","phenol","10","{phenol=[10]}","OC1=CC=CC(=C1)C(F)(F)F","","","-","","-","WGZGFRDYYXKLRB-UHFFFAOYSA"
"CCOC1CCC(O)CC1","622-62-8","R1150537","M740527","-","-","NSC9885 4-ethoxyphenol","-","Koerner","Koerner","A5912","-","-","-","10.1","Log unit","10.1","Log unit","OC1CCC(OCC)CC1","phenol","7","{phenol=[7]}","CCOC1=CC=C(O)C=C1","","","-","","-","LXRDCGVUPNWEGX-UHFFFAOYSA"
"CCC1CCCCC1O","90-00-6","R1150538","M28670","-","-","NSC10112 2-ethylphenol","-","Koerner","Koerner","A5912","-","-","-","10.2","Log unit","10.2","Log unit","OC1C(CC)CCCC1","phenol","4","{phenol=[4]}","CCC1=C(O)C=CC=C1","","","-","","-","CFYUBZHJDXXXQE-UHFFFAOYSA"
"OC1CC(F)CCC1[N+]([O-])=O","446-36-6","R1150539","M740595","-","-","NSC10284 5-fluoro-2-(hydroxy(oxido)amino)phenol","-","Koerner","Koerner","A5912","-","-","-","6.07","Log unit","6.07","Log unit","OC1C([N+](=O)[O-])CCC(F)C1","phenol","5","{phenol=[5]}","OC1=C(C=CC(=C1)F)[N+]([O-])=O","","","-","","-","KRFWGYPTKSURAX-UHFFFAOYSA"
"OC1CCCCC1F","367-12-4","R1150540","M740594","-","-","NSC10294 2-fluorophenol","-","Koerner","Koerner","A5912","-","-","-","8.7","Log unit","8.7","Log unit","OC1C(F)CCCC1","phenol","0","{phenol=[0]}","OC1=C(F)C=CC=C1","","","-","","-","LMYKFDDTPIOYQV-UHFFFAOYSA"
"OC1CCC(F)CC1","371-41-5","R1150541","M740511","-","-","NSC10295 4-fluorophenol","-","Koerner","Koerner","A5912","-","-","-","9.91","Log unit","9.91","Log unit","OC1CCC(F)CC1","phenol","7","{phenol=[7]}","OC1=CC=C(F)C=C1","","","-","","-","QINUPKIQEIKVOV-UHFFFAOYSA"
"CC(C)C1CCC(C)CC1O","89-83-8","R1150542","M7478","-","-","NSC11215 thymol","-","Koerner","Koerner","A5912","-","-","-","10.6","Log unit","10.6","Log unit","OC1C(C(C)C)CCC(C)C1","phenol","5","{phenol=[5]}","CC(C)C1=C(O)C=C(C)C=C1","","","-","","-","NOOLISFMXDJSKH-UHFFFAOYSA"
"CC1CCC(CC1O)[N+]([O-])=O","5428-54-6","R1150543","M740634","-","-","NSC12987 5-(hydroxy(oxido)amino)-2-methylphenol","-","Koerner","Koerner","A5912","-","-","-","8.59","Log unit","8.59","Log unit","OC1CC([N+](=O)[O-])CCC1C","phenol","10","{phenol=[10]}","CC1=C(O)C=C(C=C1)[N+]([O-])=O","","","-","","-","ORGXZFIAKASPRI-UHFFFAOYSA"
"OC1CCCCC1C(=O)NC1CCCCC1","87-17-2","R1150544","M740538","-","-","NSC14881 2-hydroxy-N-phenylbenzamide","-","Koerner","Koerner","A5912","-","-","-","7.4","Log unit","7.4","Log unit","OC1C(C(=O)NC2CCCCC2)CCCC1","phenol","11","{phenol=[11]}","OC1=C(C=CC=C1)C(=O)NC2=CC=CC=C2","","","-","","-","UPHFNOSOWLWFNJ-UHFFFAOYSA"
"COC1CC(CCC1O)C=O","121-33-5","R1150545","M740589","-","-","NSC15351 4-hydroxy-3-methoxybenzaldehyde","-","Koerner","Koerner","A5912","-","-","-","7.4","Log unit","7.4","Log unit","OC1CCC(CC1OC)C=O","phenol","10","{phenol=[10]}","COC1=CC(=CC=C1O)C=O","","","-","","-","DCDFGPPEPDQMPO-UHFFFAOYSA"
"OC1CCCC(C1)C1CCCCC1","580-51-8","R1150546","M740517","-","-","NSC17588 [1,1'-biphenyl]-3-ol","-","Koerner","Koerner","A5912","-","-","-","9.64","Log unit","9.64","Log unit","OC1CC(CCC1)C1CCCCC1","phenol","0","{phenol=[0]}","OC1=CC(=CC=C1)C2=CC=CC=C2","","","-","","-","UVZXBQRRXSOTAZ-UHFFFAOYSA"
"OC1C(F)C(F)C(F)C(F)C1F","771-61-9","R1150547","M740618","-","-","NSC21627 2,3,4,5,6-pentafluorophenol","-","Koerner","Koerner","A5912","-","-","-","5.53","Log unit","5.53","Log unit","OC1C(F)C(C(F)C(C1F)F)F","phenol","7","{phenol=[7]}","OC1=C(F)C(=C(F)C(=C1F)F)F","","","-","","-","XSSMPLRGNJEXLF-UHFFFAOYSA"
"COC1CCCC(O)C1","150-19-6","R1150548","M740510","-","-","NSC21735 3-methoxyphenol","-","Koerner","Koerner","A5912","-","-","-","9.65","Log unit","9.65","Log unit","OC1CC(OC)CCC1","phenol","5","{phenol=[5]}","COC1=CC(=CC=C1)O","","","-","","-","ANRGBAYCAUTVKN-UHFFFAOYSA"
"OC1CCCCC1C(=O)NC1CCC(Cl)CC1","3679-63-8","R1150549","M740545","-","-","NSC22902 N-(4-chlorophenyl)-2-hydroxybenzamide","-","Koerner","Koerner","A5912","-","-","-","7.3","Log unit","7.3","Log unit","OC1C(C(=O)NC2CCC(CC2)Cl)CCCC1","phenol","12","{phenol=[12]}","OC1=C(C=CC=C1)C(=O)NC2=CC=C(Cl)C=C2","","","-","","-","JDXPPMZDAPKEEX-UHFFFAOYSA"
"CC1CCCCC1O","95-48-7","R1150550","M21929","-","-","NSC23076 o-cresol","-","Koerner","Koerner","A5912","-","-","-","10.3","Log unit","10.3","Log unit","OC1C(C)CCCC1","phenol","3","{phenol=[3]}","CC1=C(O)C=CC=C1","","","-","","-","NDVWOBYBJYUSMF-UHFFFAOYSA"