Smiles,CASRN,Record ID,Molecule ID,External ID,N,Name,Introducer,Modifer,Article ID,PUBMED ID,PAGE,TABLE,pKa,pKa Unit,Temperature,Temperature Unit,Ionizable center smiles,IC group
OC1=CC=C(Br)C2=C1C=CC=C2,-,R936729,M1050479,-,-,4-bromo-1-naphthol,Koerner,charochkina,A5793,-,-,-,8.72,Log unit,25,?C,Oc1ccc(Br)c2ccccc12,{oh=5}
OC1=C2C=CC=CC2=CC(I)=C1,-,R936730,M1050480,-,-,3-iodo-1-naphthol,Koerner,charochkina,A5793,-,-,-,8.36,Log unit,25,?C,Oc1cc(I)cc2c1cccc2,{oh=4}
OC1=C(C=CC2=C1C=CC=C2)N=O,-,R936731,M10755,-,-,2-nitroso-1-napthol,Koerner,charochkina,A5793,-,-,-,7.3,Log unit,25,?C,Oc1c(N=O)ccc2ccccc12,{oh=1}
OC1=C(N=O)C2=C(C=CC=C2)C=C1,-,R936732,M13896,-,-,2-nitroso-1-napthol,Koerner,charochkina,A5793,-,-,-,7.6,Log unit,25,?C,Oc1c(N=O)c2ccccc2cc1,{oh=4}
OC1=C(C=CC2=CC=CC=C12)N(=O)=O,-,R936733,M67148,-,-,2-nitro-1-napthol,Koerner,charochkina,A5793,-,-,-,5.89,Log unit,25,?C,Oc1c2ccccc2ccc1N(=O)=O,{oh=5}
OC1=CC(=CC2=CC=CC=C12)N(=O)=O,-,R936734,M1050481,-,-,3-nitro-1-naphthol,Koerner,charochkina,A5793,-,-,-,7.855,Log unit,25,?C,Oc1c2ccccc2cc(c1)N(=O)=O,{oh=6}
OC1=CC=C(C2=CC=CC=C12)N(=O)=O,-,R936735,M111187,-,-,4-Nitro-1-naphthol,Koerner,charochkina,A5793,-,-,-,5.73,Log unit,25,?C,Oc1c2ccccc2c(cc1)N(=O)=O,{oh=13}
OC1=C(C2=CC=CC=C2C=C1)N(=O)=O,-,R936736,M21612,-,-,1-Nitro-2-naphthol,Koerner,charochkina,A5793,-,-,-,5.93,Log unit,25,?C,Oc1c(c2ccccc2cc1)N(=O)=O,{oh=6}
CC(C)(C)C1=C(C(O)=C(C=C1N(=O)=O)N(=O)=O)N(=O)=O,-,R936737,M1050482,-,-,"3-tert-butyl-2,4,6-trinitro-phenol",Koerner,charochkina,A5793,-,-,-,1.59,Log unit,25,?C,Oc1c(cc(N(=O)=O)c(c1N(=O)=O)C(C)(C)C)N(=O)=O,{oh=0}
CC(C)(C)C1=CC=C(O)C(Cl)=C1,-,R936738,M18239,-,-,4-TERT-BUTYL-2-CHLORO-PHENOL,Koerner,charochkina,A5793,-,-,-,8.58,Log unit,25,?C,Oc1c(Cl)cc(cc1)C(C)(C)C,{oh=10}
CC(C)C1=C(O)C=C(C)C(Cl)=C1,-,R936739,M5548,-,-,4-chloro-5-methyl-2-isopropyl-phenol,Koerner,charochkina,A5793,-,-,-,9.98,Log unit,25,?C,Oc1c(cc(Cl)c(c1)C)C(C)C,{oh=5}
CCC1=CC(=CC(CC)=C1O)N(=O)=O,-,R936740,M1050483,-,-,"2,6-diethyl-4-nitro-phenol",Koerner,charochkina,A5793,-,-,-,7.73,Log unit,25,?C,Oc1c(cc(N(=O)=O)cc1CC)CC,{oh=0}
CC1=CC=C(O)C2=CC=CC=C12,-,R936741,M32439,-,-,4-Methyl-1-naphthol,Koerner,charochkina,A5793,-,-,-,9.64,Log unit,25,?C,Oc1c2ccccc2c(cc1)C,{oh=11}
CCCCC1=CC=C(O)C(C)=C1,-,R936742,M1050484,-,-,4-butyl-2-methyl-phenol,Koerner,charochkina,A5793,-,-,-,10.69,Log unit,25,?C,Oc1ccc(CCCC)cc1C,{oh=0}
CC1=CC(=C(O)C=C1)C(C)(C)C,-,R936743,M4443,-,-,2-tert-Butyl-4-methyl-phenol,Koerner,charochkina,A5793,-,-,-,11.72,Log unit,25,?C,Oc1ccc(cc1C(C)(C)C)C,{oh=3}
CC1=C(O)C(=CC=C1)C(C)(C)C,-,R936744,M26510,-,-,2-tert-Butyl-6-methyl-phenol,Koerner,charochkina,A5793,-,-,-,10.96,Log unit,25,?C,Oc1c(cccc1C(C)(C)C)C,{oh=4}
CC1=CC(=CC=C1O)C(C)(C)C,-,R936745,M18238,-,-,4-tert-butyl-2-methyl-phenol,Koerner,charochkina,A5793,-,-,-,10.59,Log unit,25,?C,Oc1ccc(C(C)(C)C)cc1C,{oh=0}
CC(C)C1=C(C)C=C(C)C(O)=C1,-,R936746,M1050485,-,-,"5-isopropyl-2,4-dimethyl-phenol",Koerner,charochkina,A5793,-,-,-,10.76,Log unit,25,?C,Oc1cc(c(C)cc1C)C(C)C,{oh=0}
CC(C)C1=CC(C)=CC(C)=C1O,-,R936747,M1050486,-,-,"2-isopropyl-4,6-dimethyl-phenol",Koerner,charochkina,A5793,-,-,-,11.18,Log unit,25,?C,Oc1c(cc(C)cc1C(C)C)C,{oh=0}
CC(C)C1=CC(C)=C(O)C(C)=C1,-,R936748,M1050487,-,-,"4-isopropyl-2,6-dimethyl-phenol",Koerner,charochkina,A5793,-,-,-,10.9,Log unit,25,?C,Oc1c(cc(C(C)C)cc1C)C,{oh=0}
CC(C)C1=CC(C)=C(C)C=C1O,-,R936749,M1050488,-,-,"2-isopropyl-4,5-dimethyl-phenol",Koerner,charochkina,A5793,-,-,-,10.79,Log unit,25,?C,Oc1cc(c(C)cc1C(C)C)C,{oh=0}
CCC1=CC(=CC=C1O)C(C)C,-,R936750,M1050489,-,-,2-ethyl-4-isopropyl-phenol,Koerner,charochkina,A5793,-,-,-,10.77,Log unit,25,?C,Oc1ccc(C(C)C)cc1CC,{oh=0}
CCC1=CC=C(C=C1O)C(C)C,-,R936751,M1050490,-,-,2-ethyl-5-isopropyl-phenol,Koerner,charochkina,A5793,-,-,-,10.61,Log unit,25,?C,Oc1cc(ccc1CC)C(C)C,{oh=0}
CCC1=CC=C(O)C(=C1)C(C)C,-,R936752,M173481,-,-,4-ethyl-2-isopropyl-phenol,Koerner,charochkina,A5793,-,-,-,10.82,Log unit,25,?C,Oc1ccc(CC)cc1C(C)C,{oh=0}
OC1=CC2=C(C=CC=C2)C(=C1)C#N,-,R936753,M1050491,-,-,3-hydroxy-1-napthalenecarbonitrile,Koerner,charochkina,A5793,-,-,-,8.41,Log unit,25,?C,Oc1cc(C#N)c2ccccc2c1,{oh=5}
OC1=CC=C(C#N)C2=C1C=CC=C2,-,R936754,M1050492,-,-,4-hydroxy-1-napthalenecarbonitrile,Koerner,charochkina,A5793,-,-,-,7.08,Log unit,25,?C,Oc1ccc(C#N)c2ccccc12,{oh=6}
COC(=O)C1=CC(O)=CC2=C1C=CC=C2,-,R936755,M1050493,-,-,3-hydroxy-1-napthocarboxlate-methyl,Koerner,charochkina,A5793,-,-,-,8.88,Log unit,25,?C,Oc1cc(C(=O)OC)c2ccccc2c1,{oh=7}
COC(=O)C1=CC2=C(C=CC=C2)C(O)=C1,-,R936756,M1050494,-,-,4-hydroxy-2-napthocarboxlate-methyl,Koerner,charochkina,A5793,-,-,-,8.75,Log unit,25,?C,Oc1cc(cc2ccccc12)C(=O)OC,{oh=8}
CC1=CC(C)=C(O)C=C1,-,R936557,M5873,-,-,"2,4-Dimethyl-phenol",Koerner,charochkina,A5793,-,-,-,10.5975,Log unit,25,?C,Oc1ccc(cc1C)C,{oh=3}
CC1=CC(O)=C(C)C=C1,-,R936558,M7394,-,-,"2,5-Dimethyl-phenol",Koerner,charochkina,A5793,-,-,-,10.407,Log unit,25,?C,Oc1c(ccc(c1)C)C,{oh=4}
CC1=CC=CC(C)=C1O,-,R936559,M7678,-,-,"2,6-Dimethyl-phenol",Koerner,charochkina,A5793,-,-,-,10.63,Log unit,25,?C,Oc1c(cccc1C)C,{oh=4}
CC1=CC(C)=C(O)C(C)=C1,-,R936560,M945,-,-,"2,3,6-trimethyl-phenol",Koerner,charochkina,A5793,-,-,-,10.875,Log unit,25,?C,Oc1c(cc(C)cc1C)C,{oh=0}
CCC1=CC=CC=C1O,-,R936561,M4765,-,-,2-Ethyl-phenol,Koerner,charochkina,A5793,-,-,-,10.235,Log unit,25,?C,Oc1ccccc1CC,{oh=8}
OC1=CC=CC=C1C1=CC=CC=C1,-,R936562,M6249,-,-,Biphenyl-2-ol,Koerner,charochkina,A5793,-,-,-,9.97,Log unit,25,?C,Oc1c(c2ccccc2)cccc1,{oh=9}
OC1=CC=CC2=CC=CC=C12,-,R936563,M5611,-,-,1-naphthol,Koerner,charochkina,A5793,-,-,-,9.395,Log unit,25,?C,Oc1c2ccccc2ccc1,{oh=6}
OC1=CC=CC=C1F,-,R936564,M3769,-,-,2-fluoro-phenol,Koerner,charochkina,A5793,-,-,-,8.715,Log unit,25,?C,Oc1c(F)cccc1,{oh=7}
OC1=CC=CC=C1Cl,-,R936565,M4652,-,-,2-chloro-phenol,Koerner,charochkina,A5793,-,-,-,8.541,Log unit,25,?C,Oc1c(Cl)cccc1,{oh=7}
OC1=CC=C(Cl)C=C1Cl,-,R936566,M3786,-,-,"2,4-dichloro-phenol",Koerner,charochkina,A5793,-,-,-,7.795,Log unit,25,?C,Oc1ccc(Cl)cc1Cl,{oh=5}
OC1=CC=CC=C1Br,-,R936567,M11509,-,-,2-bromo-phenol,Koerner,charochkina,A5793,-,-,-,8.445999,Log unit,25,?C,Oc1c(Br)cccc1,{oh=7}
OC1=CC=CC=C1I,-,R936568,M5773,-,-,2-iodo-phenol,Koerner,charochkina,A5793,-,-,-,8.511499,Log unit,25,?C,Oc1c(I)cccc1,{oh=7}
OC1=CC=CC=C1N(=O)=O,-,R936569,M4599,-,-,2-nitro-phenol,Koerner,charochkina,A5793,-,-,-,7.225,Log unit,25,?C,Oc1ccccc1N(=O)=O,{oh=9}
CC1=CC(=CC(C)=C1O)N(=O)=O,-,R936570,M26835,-,-,"2,6-dimethyl-4-nitro-phenol",Koerner,charochkina,A5793,-,-,-,7.07,Log unit,25,?C,Oc1c(cc(N(=O)=O)cc1C)C,{oh=0}
CC1=CC(C)=C(O)C(C)=C1N(=O)=O,-,R936571,M1050444,-,-,meta-nitro-mesitol,Koerner,charochkina,A5793,-,-,-,8.98,Log unit,25,?C,Oc1c(cc(C)c(c1C)N(=O)=O)C,{oh=0}
OC1=CC=C(C=C1N(=O)=O)N(=O)=O,-,R936572,M11008,-,-,"2,4-dinitro-phenol",Koerner,charochkina,A5793,-,-,-,4.0715,Log unit,25,?C,Oc1ccc(N(=O)=O)cc1N(=O)=O,{oh=0}
OC1=CC(=CC=C1N(=O)=O)N(=O)=O,-,R936573,M11411,-,-,"2,5-dinitro-phenol",Koerner,charochkina,A5793,-,-,-,5.211,Log unit,25,?C,Oc1cc(ccc1N(=O)=O)N(=O)=O,{oh=0}
OC1=C(C=CC=C1N(=O)=O)N(=O)=O,-,R936574,M4920,-,-,"2,6-dinitro-phenol",Koerner,charochkina,A5793,-,-,-,3.965,Log unit,25,?C,Oc1c(cccc1N(=O)=O)N(=O)=O,{oh=4}
OC1=C(C=C(C=C1N(=O)=O)N(=O)=O)N(=O)=O,-,R936575,M8336,-,-,"2,4,6-trinitro-phenol",Koerner,charochkina,A5793,-,-,-,0.3515,Log unit,25,?C,Oc1c(cc(N(=O)=O)cc1N(=O)=O)N(=O)=O,{oh=0}
COC1=CC=CC=C1O,-,R936576,M6159,-,-,2-Methoxy-Phenol,Koerner,charochkina,A5793,-,-,-,9.875,Log unit,25,?C,Oc1ccccc1OC,{oh=8}
COC1=CC(CC=C)=CC=C1O,-,R936577,M9970,-,-,4-allyl-2-methoxy-phenol,Koerner,charochkina,A5793,-,-,-,10.17,Log unit,25,?C,Oc1ccc(CC=C)cc1OC,{oh=0}
OC1=C(C=C(Cl)C=C1N(=O)=O)N(=O)=O,-,R936578,M17894,-,-,"4-chloro-2,6-dinitro-phenol",Koerner,charochkina,A5793,-,-,-,2.96,Log unit,25,?C,Oc1c(cc(Cl)cc1N(=O)=O)N(=O)=O,{oh=5}
OC1=C(Cl)C(Cl)=C(Cl)C(Cl)=C1Cl,-,R936579,M4836,-,-,pentachloro-Phenol,Koerner,charochkina,A5793,-,-,-,4.5,Log unit,25,?C,Oc1c(c(c(Cl)c(Cl)c1Cl)Cl)Cl,{oh=7}
OC1=C(F)C(F)=C(F)C(F)=C1F,-,R936580,M12792,-,-,pentafluoro-phenol,Koerner,charochkina,A5793,-,-,-,5.365,Log unit,25,?C,Oc1c(c(c(F)c(F)c1F)F)F,{oh=7}
OC1=C(Cl)C=C(Cl)C=C1Cl,-,R936581,M6189,-,-,"2,4,6-trichloro-phenol",Koerner,charochkina,A5793,-,-,-,6.23,Log unit,25,?C,Oc1c(cc(Cl)cc1Cl)Cl,{oh=6}
OC1=C(Cl)C(Cl)=CC=C1,-,R936582,M11197,-,-,"2,3-dichloro-phenol",Koerner,charochkina,A5793,-,-,-,7.7,Log unit,25,?C,Oc1c(c(Cl)ccc1)Cl,{oh=8}
OC1=CC(Cl)=CC=C1Cl,-,R936583,M9577,-,-,"2,5-dichloro-phenol",Koerner,charochkina,A5793,-,-,-,7.51,Log unit,25,?C,Oc1cc(Cl)ccc1Cl,{oh=8}
OC1=C(Cl)C=CC=C1Cl,-,R936584,M3968,-,-,"2,6-dichloro-phenol",Koerner,charochkina,A5793,-,-,-,6.79,Log unit,25,?C,Oc1c(Cl)cccc1Cl,{oh=6}
OC1=C(Br)C=C(Br)C=C1,-,R936585,M2455,-,-,"2,4-dibromo-phenol",Koerner,charochkina,A5793,-,-,-,7.79,Log unit,25,?C,Oc1c(cc(Br)cc1)Br,{oh=6}
OC1=C(Br)C=CC=C1Br,-,R936586,M22351,-,-,"2,6-Dibromo-phenol",Koerner,charochkina,A5793,-,-,-,6.67,Log unit,25,?C,Oc1c(Br)cccc1Br,{oh=6}
OC1=C(C(=CC=C1)N(=O)=O)N(=O)=O,-,R936587,M6766,-,-,"2,3-dinitro-phenol",Koerner,charochkina,A5793,-,-,-,4.97,Log unit,25,?C,Oc1cccc(c1N(=O)=O)N(=O)=O,{oh=3}
NC1=CC(=C(O)C=C1)N(=O)=O,-,R936588,M12295,-,-,4-AMINO-2-NITRO-PHENOL,Koerner,charochkina,A5793,-,-,-,7.81,Log unit,25,?C,Oc1ccc(cc1N(=O)=O)N,{oh=3}
OC1=C(C(Cl)=C(C(Cl)=C1N(=O)=O)N(=O)=O)N(=O)=O,-,R936589,M34604,-,-,"3,5-dichloro-2,4,6-trinitro-phenol",Koerner,charochkina,A5793,-,-,-,-0.7,Log unit,25,?C,Oc1c(c(Cl)c(c(Cl)c1N(=O)=O)N(=O)=O)N(=O)=O,{oh=14}
OC1=C(C(Cl)=C(C=C1N(=O)=O)N(=O)=O)N(=O)=O,-,R936590,M1050445,-,-,"3-chloro-2,4,6-trinitro-phenol",Koerner,charochkina,A5793,-,-,-,-0.2,Log unit,25,?C,Oc1c(c(Cl)c(cc1N(=O)=O)N(=O)=O)N(=O)=O,{oh=13}
OC1=C(C(Br)=C(C=C1N(=O)=O)N(=O)=O)N(=O)=O,-,R936591,M1050446,-,-,"3-bromo-2,4,6-trinitro-phenol",Koerner,charochkina,A5793,-,-,-,-0.05,Log unit,25,?C,Oc1c(c(Br)c(cc1N(=O)=O)N(=O)=O)N(=O)=O,{oh=13}
OC1=C(C(I)=C(C=C1N(=O)=O)N(=O)=O)N(=O)=O,-,R936592,M1050447,-,-,"3-iodo-2,4,6-trinitro-phenol",Koerner,charochkina,A5793,-,-,-,0.15,Log unit,25,?C,Oc1c(c(I)c(cc1N(=O)=O)N(=O)=O)N(=O)=O,{oh=13}
OC1=C(Cl)C=C(Br)C=C1Cl,-,R936593,M5564,-,-,"4-bromo-2,6-dichloro-phenol",Koerner,charochkina,A5793,-,-,-,6.21,Log unit,25,?C,Oc1c(cc(Br)cc1Cl)Cl,{oh=6}
OC1=C(Cl)C=C(C=C1Cl)N(=O)=O,-,R936594,M8908,-,-,"2,6-dichloro-4-nitro-phenol",Koerner,charochkina,A5793,-,-,-,3.555,Log unit,25,?C,Oc1c(Cl)cc(cc1Cl)N(=O)=O,{oh=9}
OC1=C(Br)C=C(Br)C=C1N(=O)=O,-,R936595,M750743,-,-,"2,4-dibromo-6-nitro-phenol",Koerner,charochkina,A5793,-,-,-,4.71,Log unit,25,?C,Oc1c(cc(Br)cc1N(=O)=O)Br,{oh=6}
OC1=C(Br)C=C(C=C1Br)N(=O)=O,-,R936596,M12131,-,-,"2,6-dibromo-4-nitro-phenol",Koerner,charochkina,A5793,-,-,-,3.39,Log unit,25,?C,Oc1c(Br)cc(cc1Br)N(=O)=O,{oh=9}
OC1=C(I)C=C(C=C1I)N(=O)=O,-,R936597,M11396,-,-,"2,6-diiodo-4-nitro-phenol",Koerner,charochkina,A5793,-,-,-,3.32,Log unit,25,?C,Oc1c(I)cc(cc1I)N(=O)=O,{oh=9}
OC1=C(C=C(C=C1Cl)N(=O)=O)N(=O)=O,-,R936598,M24152,-,-,"2-chloro-4,6-dinitro-phenol",Koerner,charochkina,A5793,-,-,-,2.055,Log unit,25,?C,Oc1c(Cl)cc(cc1N(=O)=O)N(=O)=O,{oh=9}
OC1=C(C=C(C=C1Br)N(=O)=O)N(=O)=O,-,R936599,M1050448,-,-,"2-bromo-4,6-dinitro-phenol",Koerner,charochkina,A5793,-,-,-,2.23,Log unit,25,?C,Oc1c(Br)cc(cc1N(=O)=O)N(=O)=O,{oh=9}
OC1=CC=C(Br)C=C1Cl,-,R936600,M28866,-,-,4-bromo-2-chloro-phenol,Koerner,charochkina,A5793,-,-,-,7.64,Log unit,25,?C,Oc1ccc(Br)cc1Cl,{oh=5}
OC1=CC=C(C=C1Cl)N(=O)=O,-,R936601,M909,-,-,2-chloro-4-nitro-phenol,Koerner,charochkina,A5793,-,-,-,5.38,Log unit,25,?C,Oc1c(Cl)cc(cc1)N(=O)=O,{oh=9}
OC1=C(C=CC=C1Cl)N(=O)=O,-,R936602,M22287,-,-,2-chloro-6-nitro-phenol,Koerner,charochkina,A5793,-,-,-,5.483,Log unit,25,?C,Oc1c(Cl)cccc1N(=O)=O,{oh=6}
OC1=CC(Cl)=CC=C1N(=O)=O,-,R936603,M22406,-,-,3-chloro-6-nitro-phenol,Koerner,charochkina,A5793,-,-,-,6.05,Log unit,25,?C,Oc1cc(Cl)ccc1N(=O)=O,{oh=10}
OC1=CC=C(Cl)C=C1N(=O)=O,-,R936604,M7660,-,-,4-chloro-2-nitro-phenol,Koerner,charochkina,A5793,-,-,-,6.459,Log unit,25,?C,Oc1ccc(Cl)cc1N(=O)=O,{oh=5}
OC1=CC(F)=CC=C1N(=O)=O,-,R936605,M9358,-,-,5-fluoro-2-nitro-phenol,Koerner,charochkina,A5793,-,-,-,6.07,Log unit,25,?C,Oc1cc(F)ccc1N(=O)=O,{oh=10}
OC1=CC=CC=C1C#N,-,R936606,M1364,-,-,2-hydroxy-benzenecarbonitrile,Koerner,charochkina,A5793,-,-,-,6.86,Log unit,25,?C,Oc1ccccc1C#N,{oh=8}
OC1=CC(=CC=C1)C(F)(F)F,-,R936607,M11044,-,-,3-Trifluoromethyl-phenol,Koerner,charochkina,A5793,-,-,-,8.95,Log unit,25,?C,Oc1cccc(C(F)(F)F)c1,{oh=9}
OC1=CC=C(C=C1)C(F)(F)F,-,R936608,M640,-,-,4-trifluoromethyl-phenol,Koerner,charochkina,A5793,-,-,-,8.675,Log unit,25,?C,Oc1ccc(C(F)(F)F)cc1,{oh=0}
CC1=C(C(O)=C(C=C1N(=O)=O)N(=O)=O)N(=O)=O,-,R936609,M22268,-,-,"3-Methyl-2,4,6-trinitro-phenol",Koerner,charochkina,A5793,-,-,-,0.905,Log unit,25,?C,Oc1c(cc(N(=O)=O)c(c1N(=O)=O)C)N(=O)=O,{oh=0}
COC1=C(C(O)=C(C=C1N(=O)=O)N(=O)=O)N(=O)=O,-,R936610,M1050449,-,-,"3-methoxy-2,4,6-trinitro-phenol",Koerner,charochkina,A5793,-,-,-,0.37,Log unit,25,?C,Oc1c(cc(N(=O)=O)c(c1N(=O)=O)OC)N(=O)=O,{oh=0}
CC1=CC(Cl)=CC(Cl)=C1O,-,R936611,M25384,-,-,"2,4-dichloro-6-methyl-phenol",Koerner,charochkina,A5793,-,-,-,8.14,Log unit,25,?C,Oc1c(cc(Cl)cc1C)Cl,{oh=6}
CC1=CC(Cl)=C(O)C(Cl)=C1,-,R936612,M26865,-,-,"2,6-dichloro-4-methyl-phenol",Koerner,charochkina,A5793,-,-,-,7.19,Log unit,25,?C,Oc1c(Cl)cc(cc1Cl)C,{oh=7}
CC1=C(O)C(=CC(=C1)N(=O)=O)N(=O)=O,-,R936613,M14504,-,-,"2-methyl-4,6-dinitro-phenol",Koerner,charochkina,A5793,-,-,-,4.2,Log unit,25,?C,Oc1c(cc(N(=O)=O)cc1N(=O)=O)C,{oh=0}
CC1=CC=C(O)C(Cl)=C1,-,R936614,M31384,-,-,2-chloro-4-methyl-phenol,Koerner,charochkina,A5793,-,-,-,8.74,Log unit,25,?C,Oc1c(Cl)cc(cc1)C,{oh=8}
CC1=C(O)C(Cl)=CC=C1,-,R936615,M17860,-,-,4-chloro-6-methyl-phenol,Koerner,charochkina,A5793,-,-,-,8.69,Log unit,25,?C,Oc1c(Cl)cccc1C,{oh=6}
CC(=O)C1=C(O)C=CC=C1,-,R936616,M4946,-,-,2-hydroxy-acetophenone,Koerner,charochkina,A5793,-,-,-,10.1,Log unit,25,?C,Oc1c(C(=O)C)cccc1,{oh=1}
CC(=O)C1=CC=CC(O)=C1,-,R936617,M6485,-,-,3-HYDROXY-ACETOPHENONE,Koerner,charochkina,A5793,-,-,-,9.25,Log unit,25,?C,Oc1cccc(c1)C(=O)C,{oh=3}
CC(=O)C1=CC=C(O)C=C1,-,R936618,M10849,-,-,4-hydroxy-acetophenone,Koerner,charochkina,A5793,-,-,-,8.030001,Log unit,25,?C,Oc1ccc(C(=O)C)cc1,{oh=0}
CC(=O)C1=C(O)C(=CC(=C1)N(=O)=O)N(=O)=O,-,R936619,M1050450,-,-,"2-hydroxy-3,5-dinitro-acetophenone",Koerner,charochkina,A5793,-,-,-,3.1,Log unit,25,?C,Oc1c(C(=O)C)cc(cc1N(=O)=O)N(=O)=O,{oh=5}
OOC(=O)C1=CC(Cl)=CC=C1,-,R936620,M24117,-,-,3-chloro-peroxybenzoic acid,Koerner,charochkina,A5793,-,-,-,7.57,Log unit,25,?C,OOC(=O)c1cc(Cl)ccc1,{oh=4}
OOC(=O)C1=CC=C(Cl)C=C1,-,R936621,M68206,-,-,4-chloro-peroxybenzoic acid,Koerner,charochkina,A5793,-,-,-,7.64,Log unit,25,?C,OOC(=O)c1ccc(Cl)cc1,{oh=4}
OOC(=O)C1=C(F)C=CC=C1,-,R936622,M1050451,-,-,2-fluoro-peroxybenzoic acid,Koerner,charochkina,A5793,-,-,-,6.77,Log unit,25,?C,OOC(=O)c1c(F)cccc1,{oh=4}
OOC(=O)C1=CC(F)=CC=C1,-,R936623,M1050452,-,-,3-fluoro-peroxybenzoic acid,Koerner,charochkina,A5793,-,-,-,7.57,Log unit,25,?C,OOC(=O)c1cc(F)ccc1,{oh=4}
OOC(=O)C1=CC=C(F)C=C1,-,R936624,M1050453,-,-,4-fluoro-peroxybenzoic acid,Koerner,charochkina,A5793,-,-,-,7.76,Log unit,25,?C,OOC(=O)c1ccc(F)cc1,{oh=4}
CC1=CC(Cl)=CC=C1O,-,R936625,M9739,-,-,4-chloro-2-methyl-phenol,Koerner,charochkina,A5793,-,-,-,9.63,Log unit,25,?C,Oc1ccc(Cl)cc1C,{oh=5}
COC1=CC=C(O)C(Br)=C1,-,R936626,M109379,-,-,2-bromo-4-methoxy-phenol,Koerner,charochkina,A5793,-,-,-,8.69,Log unit,25,?C,Oc1c(Br)cc(cc1)OC,{oh=9}
CC1=CC=C(C=C1O)N(=O)=O,-,R936627,M11188,-,-,2-Methyl-5-nitro-phenol,Koerner,charochkina,A5793,-,-,-,8.59,Log unit,25,?C,Oc1cc(ccc1C)N(=O)=O,{oh=0}
CC1=CC(O)=C(C=C1)N(=O)=O,-,R936628,M7534,-,-,5-methyl-2-nitro-phenol,Koerner,charochkina,A5793,-,-,-,7.33,Log unit,25,?C,Oc1c(ccc(c1)C)N(=O)=O,{oh=4}
CC1=CC(=C(O)C=C1)N(=O)=O,-,R936629,M10737,-,-,4-methyl-2-nitro-phenol,Koerner,charochkina,A5793,-,-,-,7.4985,Log unit,25,?C,Oc1ccc(cc1N(=O)=O)C,{oh=3}
CC1=CC=C(O)C=C1N(=O)=O,-,R936630,M958,-,-,4-methyl-3-nitro-phenol,Koerner,charochkina,A5793,-,-,-,8.62,Log unit,25,?C,Oc1ccc(C)c(c1)N(=O)=O,{oh=0}
CC1=CC(O)=C(C=C1)N(=O)=O,-,R936631,M7534,-,-,5-methyl-2-nitro-phenol,Koerner,charochkina,A5793,-,-,-,7.45,Log unit,25,?C,Oc1c(N(=O)=O)ccc(C)c1,{oh=1}
COC1=C(O)C(=CC=C1)N(=O)=O,-,R936632,M1050454,-,-,2-methoxy-6-nitro-phenol,Koerner,charochkina,A5793,-,-,-,6.84,Log unit,25,?C,Oc1c(cccc1N(=O)=O)OC,{oh=6}
COC1=CC(O)=CC=C1N(=O)=O,-,R936633,M1050455,-,-,3-methoxy-4-nitro-phenol,Koerner,charochkina,A5793,-,-,-,6.1,Log unit,25,?C,Oc1ccc(N(=O)=O)c(c1)OC,{oh=0}
COC1=CC=C(C(O)=C1)N(=O)=O,-,R936634,M747995,-,-,5-methoxy-2-nitro-phenol,Koerner,charochkina,A5793,-,-,-,6.815,Log unit,25,?C,Oc1cc(ccc1N(=O)=O)OC,{oh=0}
COC1=CC=C(O)C(=C1)N(=O)=O,-,R936635,M25378,-,-,4-methoxy-2-nitro-phenol,Koerner,charochkina,A5793,-,-,-,7.39,Log unit,25,?C,Oc1ccc(OC)cc1N(=O)=O,{oh=0}
COC1=CC=C(O)C=C1N(=O)=O,-,R936636,M1050456,-,-,4-methoxy-3-nitro-phenol,Koerner,charochkina,A5793,-,-,-,8.68,Log unit,25,?C,Oc1ccc(OC)c(c1)N(=O)=O,{oh=0}
COC1=CC(N)=C(O)C=C1,-,R936637,M1050457,-,-,2-amino-4-methoxy-phenol,Koerner,charochkina,A5793,-,-,-,10.07,Log unit,25,?C,Oc1ccc(cc1N)OC,{oh=7}
OC1=C(Cl)C=C(C=C1Cl)C#N,-,R936638,M70361,-,-,"3,5-dichloro-4-hydroxy-benzenecarbonitrile",Koerner,charochkina,A5793,-,-,-,4.305,Log unit,25,?C,Oc1c(Cl)cc(cc1Cl)C#N,{oh=8}
OC1=C(Br)C=C(C=C1Br)C#N,-,R936639,M11260,-,-,"3,5-dibromo-4-hydroxy-benzenecarbonitrile",Koerner,charochkina,A5793,-,-,-,4.05,Log unit,25,?C,Oc1c(Br)cc(cc1Br)C#N,{oh=8}
OC1=C(I)C=C(C=C1I)C#N,-,R936640,M7552,-,-,"4-hydroxy-3,5-diiodo-benzenecarbonitrile",Koerner,charochkina,A5793,-,-,-,4.15,Log unit,25,?C,Oc1c(I)cc(cc1I)C#N,{oh=8}
CC1=C(C(O)=C(C=C1Cl)N(=O)=O)N(=O)=O,-,R936641,M1050458,-,-,"4-chloro-3-methyl-2,6-dinitro-phenol",Koerner,charochkina,A5793,-,-,-,3.24,Log unit,25,?C,Oc1c(cc(Cl)c(C)c1N(=O)=O)N(=O)=O,{oh=5}
COC(=O)C1=CC=CC=C1O,-,R936642,M8234,-,-,Methyl 2-hydroxybenzoate,Koerner,charochkina,A5793,-,-,-,10.03,Log unit,25,?C,Oc1ccccc1C(=O)OC,{oh=10}
COC(=O)C1=C(O)C([O-])=CC=C1,-,R936643,M71207,-,-,"2,3-dihydroxybenzoate-methyl",Koerner,charochkina,A5793,-,-,-,12.94,Log unit,25,?C,Oc1c(C(=O)OC)cccc1[O-],{oh=6}
COC(=O)C1=C(O)C=C([O-])C=C1,-,R936644,M26360,-,-,"2,4-dihydroxybenzoate-methyl",Koerner,charochkina,A5793,-,-,-,11.73,Log unit,25,?C,Oc1c(C(=O)OC)ccc(c1)[O-],{oh=6}
COC(=O)C1=C(O)C=CC([O-])=C1,-,R936645,M70757,-,-,"2,5-dihydroxybenzoate-methyl",Koerner,charochkina,A5793,-,-,-,12.02,Log unit,25,?C,Oc1c(C(=O)OC)cc(cc1)[O-],{oh=6}
COC(=O)C1=C(O)C=CC=C1[O-],-,R936646,M718790,-,-,"2,6-dihydroxybenzoate-methyl",Koerner,charochkina,A5793,-,-,-,11.3,Log unit,25,?C,Oc1c(C(=O)OC)c(ccc1)[O-],{oh=6}
COC(=O)C1=CC([O-])=CC(O)=C1,-,R936647,M9900,-,-,"3,5-dihydroxybenzoate-methyl",Koerner,charochkina,A5793,-,-,-,10.36,Log unit,25,?C,Oc1cc(cc(C(=O)OC)c1)[O-],{oh=10}
CCOC1=CC=CC=C1O,-,R936648,M6900,-,-,2-ethoxy-phenol,Koerner,charochkina,A5793,-,-,-,10.11,Log unit,25,?C,Oc1ccccc1OCC,{oh=9}
CCOC1=CC=CC(O)=C1,-,R936649,M11535,-,-,3-ethoxy-phenol,Koerner,charochkina,A5793,-,-,-,9.65,Log unit,25,?C,Oc1cccc(c1)OCC,{oh=3}
CCOC1=CC=C(O)C=C1,-,R936650,M6239,-,-,4-ethoxy-phenol,Koerner,charochkina,A5793,-,-,-,10.13,Log unit,25,?C,Oc1ccc(cc1)OCC,{oh=9}
COC1=C(O)C=CC=C1C,-,R936651,M109435,-,-,2-methoxy-3-methyl-phenol,Koerner,charochkina,A5793,-,-,-,9.74,Log unit,25,?C,Oc1cccc(c1OC)C,{oh=3}
COC1=C(O)C=CC(C)=C1,-,R936652,M18070,-,-,2-methoxy-4-methyl-phenol,Koerner,charochkina,A5793,-,-,-,10.245,Log unit,25,?C,Oc1ccc(cc1OC)C,{oh=3}
COC1=C(O)C=C(C)C=C1,-,R936653,M68905,-,-,2-methoxy-5-methyl-phenol,Koerner,charochkina,A5793,-,-,-,9.93,Log unit,25,?C,Oc1c(ccc(c1)C)OC,{oh=4}
COC1=CC=CC(C)=C1O,-,R936654,M110033,-,-,2-methoxy-6-methyl-phenol,Koerner,charochkina,A5793,-,-,-,10.285,Log unit,25,?C,Oc1c(cccc1OC)C,{oh=4}
COC1=CC(O)=C(C)C=C1,-,R936655,M1050459,-,-,5-methoxy-2-methyl-phenol,Koerner,charochkina,A5793,-,-,-,9.38,Log unit,25,?C,Oc1c(ccc(c1)OC)C,{oh=8}
COC1=CC(C)=C(O)C=C1,-,R936656,M360821,-,-,4-methoxy-2-methyl-phenol,Koerner,charochkina,A5793,-,-,-,10.21,Log unit,25,?C,Oc1ccc(cc1C)OC,{oh=7}
CCOO,-,R936457,M27737,-,-,ethylhydroperoxide,Koerner,charochkina,A5793,-,-,-,11.8,Log unit,25,?C,OOCC,{oh=0}