"SMILES","CASRN","RECORDID","MOLECULEID","EXTERNALID","N","NAME","NAME","INTRODUCER","MODIFIER","ARTICLEID","PUBMEDID","PAGE","TABLE","pKa (smiles as ob. cond.) {measured}","UNIT {pKa (smiles as ob. cond.)}","pKa (smiles as ob. cond.) {measured, converted}","UNIT {pKa (smiles as ob. cond.)}","Ionizable centre (smiles)","IC group detected","AtomNR of IC","groupsAndICs","IC smiles given","IC group given","Temperature","UNIT {Temperature}","MultiGroupDetection","COMMENTS","INCHI_KEY"
"NCCOCC[NH3+]","-","R944836","M71785","-","-","1-amino-2-(2-amino)ethoxyethane","-","Koerner","charochkina","A5793","-","-","-","8.9","Log unit","8.9","Log unit","NCCOCC[NH3+]","3","","{nr2=[3]}","O(CCN)CC[N+1]","nr2","25.0","?C","","-","GXVUZYLYWKWJIM-UHFFFAOYSA"
"[NH3+]CCNCC[NH3+]","-","R944837","M18768","-","-","1-amino-2-(2-aminoethyl)aminoethane","-","Koerner","charochkina","A5793","-","-","-","4.6","Log unit","4.6","Log unit","N(CC[NH3+])CC[NH3+]","3","","{nr2=[3]}","[N+1]CCNCC[N+1]","nr2","25.0","?C","","-","RPNUMPOLZDHAAY-UHFFFAOYSA"
"NCCCl","-","R944838","M15003","-","-","1-amino-2-chloro-ethane","-","Koerner","charochkina","A5793","-","-","-","8.56","Log unit","8.56","Log unit","NCCCl","3","","{nr2=[3]}","ClCCN","nr2","25.0","?C","","-","VKPPFDPXZWFDFA-UHFFFAOYSA"
"NCCC#N","-","R944839","M19705","-","-","1-amino-2-cyano-ethane","-","Koerner","charochkina","A5793","-","-","-","7.8","Log unit","7.8","Log unit","NCCC#N","4","","{nr2=[4]}","N#CCCN","nr2","25.0","?C","","-","AGSPXMVUFBBBMO-UHFFFAOYSA"
"NCC(F)F","-","R944840","M541321","-","-","1-amino-2,2-difluoro-ethane","-","Koerner","charochkina","A5793","-","-","-","7.09","Log unit","7.09","Log unit","NCC(F)F","4","","{nr2=[4]}","FC(F)CN","nr2","25.0","?C","","-","OVRWUZYZECPJOB-UHFFFAOYSA"
"NCCF","-","R944841","M645498","-","-","1-amino-2-fluoro-ethane","-","Koerner","charochkina","A5793","-","-","-","8.79","Log unit","8.79","Log unit","NCCF","3","","{nr2=[3]}","FCCN","nr2","25.0","?C","","-","FURHRJBOFNDYTG-UHFFFAOYSA"
"NCC[NH2+]CC1=CC=CC=C1","-","R944842","M73849","-","-","1-amino-2benzylaminoethane","-","Koerner","charochkina","A5793","-","-","-","6.5","Log unit","6.5","Log unit","NCC[NH2+]Cc1ccccc1","8","","{nr2=[8]}","c(ccc1C[N+1]CCN)cc1","nr2","25.0","?C","","-","ACYBVNYNIZTUIL-UHFFFAOYSA"
"NCCBr","-","R944843","M99066","-","-","1-amino-2-bromo-ethane","-","Koerner","charochkina","A5793","-","-","-","8.49","Log unit","8.49","Log unit","NCCBr","3","","{nr2=[3]}","BrCCN","nr2","25.0","?C","","-","IZQAUUVBKYXMET-UHFFFAOYSA"
"CCCC[NH2+]CCN","-","R944844","M1106965","-","-","1-amino-2-butylaminoethane","-","Koerner","charochkina","A5793","-","-","-","7.5","Log unit","7.5","Log unit","NCC[NH2+]CCCC","0","","{nr2=[0]}","NCC[N+1]CCCC","nr2","25.0","?C","","-","DFPGBRPWDZFIPP-UHFFFAOYSA"
"NCCC#N","-","R944845","M19705","-","-","1-amino-2-cyano-ethane","-","Koerner","charochkina","A5793","-","-","-","7.7","Log unit","7.7","Log unit","NCCC#N","4","","{nr2=[4]}","N#CCCN","nr2","25.0","?C","","-","AGSPXMVUFBBBMO-UHFFFAOYSA"
"CC[NH+](CC)CCN","-","R944846","M18320","-","-","1-AMINO-2-DIETHYLAMINOETHANE","-","Koerner","charochkina","A5793","-","-","-","7.4","Log unit","7.4","Log unit","NCC[NH+](CC)CC","0","","{nr2=[0, 3]}","NCC[N+1](CC)CC","nr2","25.0","?C","true","-","UDGSVBYJWHOHNN-UHFFFAOYSA"
"C[NH+](C)CCN","-","R944847","M18639","-","-","1-amino-2-dimethylaminoethane","-","Koerner","charochkina","A5793","-","-","-","6.6","Log unit","6.6","Log unit","NCC[NH+](C)C","0","","{nr2=[0, 3]}","NCC[N+1](C)C","nr2","25.0","?C","true","-","DILRJUIACXKSQE-UHFFFAOYSA"
"NCCOCCSCC[NH3+]","-","R944848","M1106966","-","-","1-(2-amino)ethoxy-2-(2-amino)ethylthioethane","-","Koerner","charochkina","A5793","-","-","-","8.8","Log unit","8.8","Log unit","NCCOCCSCC[NH3+]","9","","{nr2=[9]}","S(CC[N+1])CCOCCN","nr2","25.0","?C","","-","YBIZKHKEBPKLMC-UHFFFAOYSA"
"CCNCCN","-","R944849","M18738","-","-","1-amino-2-ethylaminoethane","-","Koerner","charochkina","A5793","-","-","-","10.26","Log unit","10.26","Log unit","NCCNCC","0","","{nr2=[0, 3]}","NCCNCC","nr2","25.0","?C","true","-","SCZVXVGZMZRGRU-UHFFFAOYSA"
"CC[NH2+]CCN","-","R944850","M18738","-","-","1-amino-2-ethylaminoethane","-","Koerner","charochkina","A5793","-","-","-","7.9","Log unit","7.9","Log unit","NCC[NH2+]CC","0","","{nr2=[0]}","NCC[N+1]CC","nr2","25.0","?C","","-","SCZVXVGZMZRGRU-UHFFFAOYSA"
"[NH3+]CCNCC[NH2+]CCNCC[NH3+]","-","R944851","M18830","-","-","1-(2-aminoethyl)amino-2-[2-(2-aminoethyl)-aminoethyl]aminoethane","-","Koerner","charochkina","A5793","-","-","-","4.55","Log unit","4.55","Log unit","N(CC[NH3+])CC[NH2+]CCNCC[NH3+]","3","","{nr2=[3, 9]}","[N+1]CCNCC[N+1]CCNCC[N+1]","nr2","25.0","?C","true","-","FAGUFWYHJQFNRV-UHFFFAOYSA"
"[NH3+]CCNCC[NH2+]CC[NH2+]CC[NH3+]","-","R944852","M18830","-","-","1-(2-aminoethyl)amino-2-[2-(2-aminoethyl)-aminoethyl]aminoethane","-","Koerner","charochkina","A5793","-","-","-","2.95","Log unit","2.95","Log unit","N(CC[NH3+])CC[NH2+]CC[NH2+]CC[NH3+]","3","","{nr2=[3]}","[N+1]CCNCC[N+1]CC[N+1]CC[N+1]","nr2","25.0","?C","","-","FAGUFWYHJQFNRV-UHFFFAOYSA"
"NCCO","-","R944853","M4218","-","-","1-amino-2-hydroxy-ethane","-","Koerner","charochkina","A5793","-","-","-","9.49","Log unit","9.49","Log unit","NCCO","3","","{nr2=[3], oh=[0]}","OCCN","nr2","25.0","?C","","-","HZAXFHJVJLSVMW-UHFFFAOYSA"
"CNC","-","R944854","M19196","-","-","methylaminomethane","-","Koerner","charochkina","A5793","-","-","-","10.63","Log unit","10.63","Log unit","N(C)C","0","","{nr2=[0]}","N(C)C","nr2","25.0","?C","","-","ROSDSFDQCJNGOL-UHFFFAOYSA"
"NCC[NH2+]CCO","-","R944855","M18769","-","-","1-amino-2-(2-hydroxyethyl)aminoethane","-","Koerner","charochkina","A5793","-","-","-","6.8","Log unit","6.8","Log unit","NCC[NH2+]CCO","6","","{nr2=[6], oh=[0]}","OCC[N+1]CCN","nr2","25.0","?C","","-","LHIJANUOQQMGNT-UHFFFAOYSA"
"CC(O)C[NH2+]CCN","-","R944856","M19176","-","-","1-amino-2-(2-hydroxypropyl)amionethane","-","Koerner","charochkina","A5793","-","-","-","6.94","Log unit","6.94","Log unit","NCC[NH2+]CC(O)C","7","","{nr2=[7], oh=[0]}","OC(C)C[N+1]CCN","nr2","25.0","?C","","-","CWKVFRNCODQPDB-UHFFFAOYSA"
"NCC[NH2+]CCCO","-","R944857","M1106967","-","-","1-amino-2-(3-hydroxypropyl)aminoethane","-","Koerner","charochkina","A5793","-","-","-","6.78","Log unit","6.78","Log unit","NCC[NH2+]CCCO","7","","{nr2=[7], oh=[0]}","OCCC[N+1]CCN","nr2","25.0","?C","","-","KTLIZDDPOZZHCD-UHFFFAOYSA"
"CC(C)[NH2+]CCN","-","R944858","M118265","-","-","1-amino-2-isopropylaminoethane","-","Koerner","charochkina","A5793","-","-","-","7.7","Log unit","7.7","Log unit","NCC[NH2+]C(C)C","0","","{nr2=[0]}","NCC[N+1]C(C)C","nr2","25.0","?C","","-","KDRUIMNNZBMLJR-UHFFFAOYSA"
"[NH3+]CCS","-","R944859","M17222","-","-","1-amino-2-mercaptoethane","-","Koerner","charochkina","A5793","-","-","-","8.35","Log unit","8.35","Log unit","SCC[NH3+]","0","","{sh=[0]}","SCC[N+1]","sh","25.0","?C","","-","UFULAYFCSOUIOV-UHFFFAOYSA"
"NCC[S-]","-","R944860","M17222","-","-","1-amino-2-mercaptoethane","-","Koerner","charochkina","A5793","-","-","-","10.3","Log unit","10.3","Log unit","NCC[S-]","3","","{nr2=[3]}","[S-1]CCN","nr2","25.0","?C","","-","UFULAYFCSOUIOV-UHFFFAOYSA"
"COCCN","-","R944861","M443","-","-","1-amino-2-methoxy-ethane","-","Koerner","charochkina","A5793","-","-","-","9.445","Log unit","9.445","Log unit","NCCOC","4","","{nr2=[4]}","O(C)CCN","nr2","25.0","?C","","-","ASUDFOJKTJLAIK-UHFFFAOYSA"
"CNCC[NH3+]","-","R944862","M18702","-","-","1-amino-2-methylaminoethane","-","Koerner","charochkina","A5793","-","-","-","6.86","Log unit","6.86","Log unit","N(CC[NH3+])C","3","","{nr2=[3]}","[N+1]CCNC","nr2","25.0","?C","","-","KFIGICHILYTCJF-UHFFFAOYSA"
"CC1=CC=C(CNCC[NH3+])C=C1","-","R944863","M1106968","-","-","1-amino-2-(p-methyl)benzylaminoethane","-","Koerner","charochkina","A5793","-","-","-","6.51","Log unit","6.51","Log unit","N(Cc1ccc(cc1)C)CC[NH3+]","5","","{nr2=[5]}","c(cc(c1)CNCC[N+1])c(c1)C","nr2","25.0","?C","","-","FAMIROKBNMLFLB-UHFFFAOYSA"
"CSCCN","-","R944864","M117803","-","-","1-amino-2-methylthioethane","-","Koerner","charochkina","A5793","-","-","-","9.49","Log unit","9.49","Log unit","NCCSC","4","","{nr2=[4]}","S(C)CCN","nr2","25.0","?C","","-","CYWGSFFHHMQKET-UHFFFAOYSA"
"NCCNCCC1=CC=CC=C1","-","R944865","M1106969","-","-","1-amino-2-phenethylaminoethane","-","Koerner","charochkina","A5793","-","-","-","9.14","Log unit","9.14","Log unit","N(CCc1ccccc1)CCN","6","","{nr2=[6, 9]}","c(ccc1CCNCCN)cc1","nr2","25.0","?C","true","-","CPCHVLBDLZEKTD-UHFFFAOYSA"
"NCC[NH2+]CCC1=CC=CC=C1","-","R944866","M1106969","-","-","1-amino-2-phenethylaminoethane","-","Koerner","charochkina","A5793","-","-","-","6.9","Log unit","6.9","Log unit","NCC[NH2+]CCc1ccccc1","9","","{nr2=[9]}","c(ccc1CC[N+1]CCN)cc1","nr2","25.0","?C","","-","CPCHVLBDLZEKTD-UHFFFAOYSA"
"CCC[NH2+]CCN","-","R944867","M65417","-","-","1-amino-2-propylaminoethane","-","Koerner","charochkina","A5793","-","-","-","7.54","Log unit","7.54","Log unit","NCC[NH2+]CCC","0","","{nr2=[0]}","NCC[N+1]CCC","nr2","25.0","?C","","-","CFNHVUGPXZUTRR-UHFFFAOYSA"
"NCC(Cl)(Cl)Cl","-","R944868","M1106970","-","-","1-amino-2,2,2-trichloro-ethane","-","Koerner","charochkina","A5793","-","-","-","5.47","Log unit","5.47","Log unit","NCC(Cl)(Cl)Cl","5","","{nr2=[5]}","ClC(Cl)(Cl)CN","nr2","25.0","?C","","-","FCLPGDSITYLYCH-UHFFFAOYSA"
"NCC(F)(F)F","-","R944869","M5591","-","-","1-amino-2,2,2-trichloro-ethane","-","Koerner","charochkina","A5793","-","-","-","5.7","Log unit","5.7","Log unit","NCC(F)(F)F","5","","{nr2=[5]}","FC(F)(F)CN","nr2","25.0","?C","","-","KIPSRYDSZQRPEA-UHFFFAOYSA"
"CCN(CC)CCC(=O)CC1=CC=CC=C1","-","R944870","M1106971","-","-","1-benzylcarbonyl-2-diethylaminoethane","-","Koerner","charochkina","A5793","-","-","-","9.4","Log unit","9.4","Log unit","N(CCC(=O)Cc1ccccc1)(CC)CC","9","","{nr2=[9]}","c(ccc1CC(=O)CCN(CC)CC)cc1","nr2","25.0","?C","","-","ZGVJIUVYXLPXMG-UHFFFAOYSA"
"CN(C)CCC(=O)CC1=CC=CC=C1","-","R944871","M1106972","-","-","1-benzylcarbonyl-2-dimethylaminoethane","-","Koerner","charochkina","A5793","-","-","-","8.3","Log unit","8.3","Log unit","N(CCC(=O)Cc1ccccc1)(C)C","9","","{nr2=[9]}","c(ccc1CC(=O)CCN(C)C)cc1","nr2","25.0","?C","","-","MECMWFXKIGOLKV-UHFFFAOYSA"
"NCCOCCOCCN","-","R944872","M57644","-","-","1,2-bis(2-amino)ethoxyethane","-","Koerner","charochkina","A5793","-","-","-","9.58","Log unit","9.58","Log unit","NCCOCCOCCN","3","","{nr2=[3, 9]}","O(CCN)CCOCCN","nr2","25.0","?C","true","-","IWBOPFCKHIJFMS-UHFFFAOYSA"
"NCCOCCOCC[NH3+]","-","R944873","M57644","-","-","1,2-bis(2-amino)ethoxyethane","-","Koerner","charochkina","A5793","-","-","-","9.17","Log unit","9.17","Log unit","NCCOCCOCC[NH3+]","9","","{nr2=[9]}","O(CC[N+1])CCOCCN","nr2","25.0","?C","","-","IWBOPFCKHIJFMS-UHFFFAOYSA"
"[NH3+]CCNCCNCC[NH3+]","-","R944874","M18809","-","-","1,2-bis(2-aminoethyl)aminoethane","-","Koerner","charochkina","A5793","-","-","-","6.3","Log unit","6.3","Log unit","N(CC[NH3+])CCNCC[NH3+]","3","","{nr2=[3, 6]}","[N+1]CCNCCNCC[N+1]","nr2","25.0","?C","true","-","VILCJCGEZXAXTO-UHFFFAOYSA"
"[NH3+]CCNCC[NH2+]CC[NH3+]","-","R944875","M18809","-","-","1,2-bis(2-aminoethyl)aminoethane","-","Koerner","charochkina","A5793","-","-","-","3.6","Log unit","3.6","Log unit","N(CC[NH2+]CC[NH3+])CC[NH3+]","6","","{nr2=[6]}","[N+1]CC[N+1]CCNCC[N+1]","nr2","25.0","?C","","-","VILCJCGEZXAXTO-UHFFFAOYSA"
"NCCSCCSCCN","-","R944876","M1106973","-","-","1,2-bis(2-aminoethyl)thioethane","-","Koerner","charochkina","A5793","-","-","-","9.32","Log unit","9.32","Log unit","NCCSCCSCCN","3","","{nr2=[3, 9]}","S(CCN)CCSCCN","nr2","25.0","?C","true","-","JFODQDKKGQHJBB-UHFFFAOYSA"
"NCCSCCSCC[NH3+]","-","R944877","M1106973","-","-","1,2-bis(2-aminoethyl)thioethane","-","Koerner","charochkina","A5793","-","-","-","8.9","Log unit","8.9","Log unit","NCCSCCSCC[NH3+]","9","","{nr2=[9]}","S(CC[N+1])CCSCCN","nr2","25.0","?C","","-","JFODQDKKGQHJBB-UHFFFAOYSA"
"CCN(CCCl)CCCl","-","R944878","M21423","-","-","bis(2-chloroethyl)aminoethane","-","Koerner","charochkina","A5793","-","-","-","6.665","Log unit","6.665","Log unit","N(CCCl)(CCCl)CC","3","","{nr2=[3]}","ClCCN(CCCl)CC","nr2","25.0","?C","","-","UQZPGHOJMQTOHB-UHFFFAOYSA"
"COCCN(CCCl)CCCl","-","R944879","M36949","-","-","1-bis(2-chloroethyl)amino-2-methoxyethane","-","Koerner","charochkina","A5793","-","-","-","5.58","Log unit","5.58","Log unit","N(CCCl)(CCCl)CCOC","3","","{nr2=[3]}","ClCCN(CCCl)CCOC","nr2","25.0","?C","","-","ILEQWUZHPNITDE-UHFFFAOYSA"
"CCCCNCCNCCCC","-","R944880","M73653","-","-","1,2-bisbutylaminoethane","-","Koerner","charochkina","A5793","-","-","-","9.9","Log unit","9.9","Log unit","N(CCCC)CCNCCCC","0","","{nr2=[0, 7]}","N(CCCC)CCNCCCC","nr2","25.0","?C","true","-","YRGVKPIUZUOJSJ-UHFFFAOYSA"
"CCCCNCC[NH2+]CCCC","-","R944881","M73653","-","-","1,2-bisbutylaminoethane","-","Koerner","charochkina","A5793","-","-","-","7.76","Log unit","7.76","Log unit","N(CCCC)CC[NH2+]CCCC","0","","{nr2=[0]}","N(CCCC)CC[N+1]CCCC","nr2","25.0","?C","","-","YRGVKPIUZUOJSJ-UHFFFAOYSA"
"CCN(CCC#N)CCC#N","-","R944882","M1106974","-","-","bis(2-cyanoethyl)aminoethane","-","Koerner","charochkina","A5793","-","-","-","4.55","Log unit","4.55","Log unit","N(CCC#N)(CC)CCC#N","4","","{nr2=[4]}","N#CCCN(CC)CCC#N","nr2","25.0","?C","","-","AQAGWSWODZXNOM-UHFFFAOYSA"
"CCN(CC#N)CC#N","-","R944883","M1106975","-","-","bis(cyanomethyl)aminoethane","-","Koerner","charochkina","A5793","-","-","-","-0.6","Log unit","-0.6","Log unit","N(CC#N)(CC)CC#N","3","","{nr2=[3]}","N#CCN(CC)CC#N","nr2","25.0","?C","","-","ANACGMSLZOYRSF-UHFFFAOYSA"
"CCN(CC)CCN(CC)CC","-","R944884","M19699","-","-","1,2-bisdiethylaminoethane","-","Koerner","charochkina","A5793","-","-","-","9.3","Log unit","9.3","Log unit","N(CC)(CC)CCN(CC)CC","0","","{nr2=[0, 7]}","N(CC)(CC)CCN(CC)CC","nr2","25.0","?C","true","-","DIHKMUNUGQVFES-UHFFFAOYSA"
"CCN(CC)CC[NH+](CC)CC","-","R944885","M19699","-","-","1,2-bisdiethylaminoethane","-","Koerner","charochkina","A5793","-","-","-","6.9","Log unit","6.9","Log unit","N(CC)(CC)CC[NH+](CC)CC","0","","{nr2=[0, 7]}","N(CC)(CC)CC[N+1](CC)CC","nr2","25.0","?C","true","-","DIHKMUNUGQVFES-UHFFFAOYSA"
"CC(O)CN(CCN(CC(C)O)CC(C)O)CC(C)O","-","R944886","M18420","-","-","1,2-bis(di-2-hydroxypropylamino)ethane","-","Koerner","charochkina","A5793","-","-","-","8.54","Log unit","8.54","Log unit","N(CC(O)C)(CC(O)C)CCN(CC(O)C)CC(O)C","3","","{nr2=[3, 10], oh=[0, 6, 13, 17]}","OC(CN(CC(O)C)CCN(CC(O)C)CC(O)C)C","nr2","25.0","?C","true","-","NSOXQYCFHDMMGV-UHFFFAOYSA"
"CC(O)CN(CC[NH+](CC(C)O)CC(C)O)CC(C)O","-","R944887","M18420","-","-","1,2-bis(di-2-hydroxypropylamino)ethane","-","Koerner","charochkina","A5793","-","-","-","4.6","Log unit","4.6","Log unit","[NH+](CC(O)C)(CC(O)C)CCN(CC(O)C)CC(O)C","3","","{nr2=[3, 10], oh=[0, 6, 13, 17]}","OC(C[N+1](CC(O)C)CCN(CC(O)C)CC(O)C)C","nr2","25.0","?C","true","-","NSOXQYCFHDMMGV-UHFFFAOYSA"
"CC(=O)OCCN","-","R944888","M1106976","-","-","1-acetoxy-2-aminoethane","-","Koerner","charochkina","A5793","-","-","-","8.85","Log unit","8.85","Log unit","NCCOC(=O)C","5","","{nr2=[5]}","O=C(OCCN)C","nr2","25.0","?C","","-","HBVZRPAKZOLBPL-UHFFFAOYSA"
"CN(C)CCN(C)C","-","R944889","M5944","-","-","1,2-bisdimethylaminoethane","-","Koerner","charochkina","A5793","-","-","-","8.8","Log unit","8.8","Log unit","N(C)(C)CCN(C)C","0","","{nr2=[0, 5]}","N(C)(C)CCN(C)C","nr2","25.0","?C","true","-","KWYHDKDOAIKMQN-UHFFFAOYSA"
"CN(C)CC[NH+](C)C","-","R944890","M5944","-","-","1,2-bisdimethylaminoethane","-","Koerner","charochkina","A5793","-","-","-","6.0","Log unit","6.0","Log unit","[NH+](C)(C)CCN(C)C","0","","{nr2=[0, 5]}","[N+1](C)(C)CCN(C)C","nr2","25.0","?C","true","-","KWYHDKDOAIKMQN-UHFFFAOYSA"
"CN(CCN(C)CC[NH+](C)C)CC[NH+](C)C","-","R944891","M27805","-","-","1,2-bis(2-dimethylamino)ethylmethylaminoethane","-","Koerner","charochkina","A5793","-","-","-","5.1","Log unit","5.1","Log unit","[NH+](C)(C)CCN(C)CCN(C)CC[NH+](C)C","0","","{nr2=[0, 5, 9, 13]}","[N+1](C)(C)CCN(C)CCN(C)CC[N+1](C)C","nr2","25.0","?C","true","-","DWFKOMDBEKIATP-UHFFFAOYSA"
"CCNCCNCC","-","R944892","M18783","-","-","1,2-bisethylaminoethane","-","Koerner","charochkina","A5793","-","-","-","10.16","Log unit","10.16","Log unit","N(CC)CCNCC","0","","{nr2=[0, 5]}","N(CC)CCNCC","nr2","25.0","?C","true","-","CJKRXEBLWJVYJD-UHFFFAOYSA"
"CCNCC[NH2+]CC","-","R944893","M18783","-","-","1,2-bisethylaminoethane","-","Koerner","charochkina","A5793","-","-","-","8.0","Log unit","8.0","Log unit","N(CC[NH2+]CC)CC","5","","{nr2=[5]}","[N+1](CC)CCNCC","nr2","25.0","?C","","-","CJKRXEBLWJVYJD-UHFFFAOYSA"
"CC(C)NCCNC(C)C","-","R944894","M73652","-","-","1,2-bisisopropylaminoethane","-","Koerner","charochkina","A5793","-","-","-","10.1","Log unit","10.1","Log unit","N(C(C)C)CCNC(C)C","0","","{nr2=[0, 6]}","N(C(C)C)CCNC(C)C","nr2","25.0","?C","true","-","MFIGJRRHGZYPDD-UHFFFAOYSA"
"CC(C)NCC[NH2+]C(C)C","-","R944895","M73652","-","-","1,2-bisisopropylaminoethane","-","Koerner","charochkina","A5793","-","-","-","7.9","Log unit","7.9","Log unit","N(CC[NH2+]C(C)C)C(C)C","6","","{nr2=[6]}","[N+1](C(C)C)CCNC(C)C","nr2","25.0","?C","","-","MFIGJRRHGZYPDD-UHFFFAOYSA"
"CNCCNC","-","R944896","M18736","-","-","1,2-bismethylaminoethane","-","Koerner","charochkina","A5793","-","-","-","9.9","Log unit","9.9","Log unit","N(C)CCNC","0","","{nr2=[0, 4]}","N(C)CCNC","nr2","25.0","?C","true","-","KVKFRMCSXWQSNT-UHFFFAOYSA"
"CNCC[NH2+]C","-","R944897","M18736","-","-","1,2-bismethylaminoethane","-","Koerner","charochkina","A5793","-","-","-","7.7","Log unit","7.7","Log unit","N(C)CC[NH2+]C","0","","{nr2=[0]}","N(C)CC[N+1]C","nr2","25.0","?C","","-","KVKFRMCSXWQSNT-UHFFFAOYSA"
"CCCNCCNCCC","-","R944898","M1106977","-","-","1,2-bispropylaminoethane","-","Koerner","charochkina","A5793","-","-","-","10.0","Log unit","10.0","Log unit","N(CCC)CCNCCC","0","","{nr2=[0, 6]}","N(CCC)CCNCCC","nr2","25.0","?C","true","-","VATUKUMHBXZSCD-UHFFFAOYSA"
"CCCNCC[NH2+]CCC","-","R944899","M1106977","-","-","1,2-bispropylaminoethane","-","Koerner","charochkina","A5793","-","-","-","7.8","Log unit","7.8","Log unit","N(CC[NH2+]CCC)CCC","6","","{nr2=[6]}","[N+1](CCC)CCNCCC","nr2","25.0","?C","","-","VATUKUMHBXZSCD-UHFFFAOYSA"
"CCNCCOC(C1=CC=CC=C1)C1=CC=CC=C1","-","R944900","M1106978","-","-","1-(p-bromobenzhydryloxy)-2-dimethylaminoethane","-","Koerner","charochkina","A5793","-","-","-","8.64","Log unit","8.64","Log unit","N(CCOC(c1ccccc1)c1ccccc1)CC","8","","{nr2=[8]}","c(ccc1C(OCCNCC)c(ccc2)cc2)cc1","nr2","25.0","?C","","-","USZGULIHQBCUKP-UHFFFAOYSA"
"ClCCN(CCCl)CCCl","-","R944901","M21695","-","-","1-chloro-2-(bis-2-chloroethyl)aminoethane","-","Koerner","charochkina","A5793","-","-","-","4.505","Log unit","4.505","Log unit","N(CCCl)(CCCl)CCCl","3","","{nr2=[3]}","ClCCN(CCCl)CCCl","nr2","25.0","?C","","-","FDAYLTPAFBGXAB-UHFFFAOYSA"
"CN(CCCl)CCCl","-","R944902","M3670","-","-","1-chloro-2-(N-chloroethylmethyl)aminoethane","-","Koerner","charochkina","A5793","-","-","-","6.43","Log unit","6.43","Log unit","N(CCCl)(CCCl)C","3","","{nr2=[3]}","ClCCN(CCCl)C","nr2","25.0","?C","","-","HAWPXGHAZFHHAD-UHFFFAOYSA"
"CCN(CC)CCCl","-","R944903","M18319","-","-","1-chloro-2-diethylaminoethane","-","Koerner","charochkina","A5793","-","-","-","8.98","Log unit","8.98","Log unit","N(CCCl)(CC)CC","3","","{nr2=[3]}","ClCCN(CC)CC","nr2","25.0","?C","","-","YMDNODNLFSHHCV-UHFFFAOYSA"
"CCN(Cl)CC","-","R944904","M23203","-","-","N-chloro-N-ethylaminoethane","-","Koerner","charochkina","A5793","-","-","-","1.02","Log unit","1.02","Log unit","N(Cl)(CC)CC","1","","{nr2=[1]}","ClN(CC)CC","nr2","25.0","?C","","-","TYDFLVGVWMSQAC-UHFFFAOYSA"
"CN(CCO)CCCl","-","R944905","M42485","-","-","1-chloro-2-(2-hydroxyethylmethyl)aminoethane","-","Koerner","charochkina","A5793","-","-","-","7.645","Log unit","7.645","Log unit","N(CCCl)(C)CCO","3","","{nr2=[3], oh=[7]}","ClCCN(C)CCO","nr2","25.0","?C","","-","DOIGXYACGZWLMR-UHFFFAOYSA"