"SMILES","CASRN","RECORDID","MOLECULEID","EXTERNALID","N","NAME","NAME","INTRODUCER","MODIFIER","ARTICLEID","PUBMEDID","PAGE","TABLE","pKa (smiles as ob. cond.) {measured}","UNIT {pKa (smiles as ob. cond.)}","pKa (smiles as ob. cond.) {measured, converted}","UNIT {pKa (smiles as ob. cond.)}","Ionizable centre (smiles)","IC group detected","AtomNR of IC","groupsAndICs","IC smiles given","IC group given","Temperature","UNIT {Temperature}","MultiGroupDetection","COMMENTS","INCHI_KEY"
"NC1=CC=CC=C1C#N","-","R945229","M3889","-","-","2-cyano-aniline","-","Koerner","charochkina","A5793","-","-","-","0.95","Log unit","0.95","Log unit","Nc1ccccc1C#N","8","","{nr2=[8]}","c(ccc1C#N)cc1N","nr2","25.0","?C","","-","HLCPWBZNUKCSBN-UHFFFAOYSA"
"NC1=CC(=CC=C1)C#N","-","R945230","M7374","-","-","3-cyano-aniline","-","Koerner","charochkina","A5793","-","-","-","2.754","Log unit","2.754","Log unit","Nc1cccc(c1)C#N","4","","{nr2=[4]}","c(cc(c1)N)cc1C#N","nr2","25.0","?C","","-","NJXPYZHXZZCTNI-UHFFFAOYSA"
"NC1=CC=C(C=C1)C#N","-","R945231","M13398","-","-","4-cyano-aniline","-","Koerner","charochkina","A5793","-","-","-","1.7445","Log unit","1.7445","Log unit","Nc1ccc(cc1)C#N","8","","{nr2=[8]}","c(cc(c1)C#N)c(c1)N","nr2","25.0","?C","","-","YBAZINRZQSAIAY-UHFFFAOYSA"
"CN(C)C1=CC=CC(=C1)C#N","-","R945232","M1107062","-","-","3-cyano-n,n-dimethylaniline","-","Koerner","charochkina","A5793","-","-","-","2.969","Log unit","2.969","Log unit","N(c1cccc(c1)C#N)(C)C","8","","{nr2=[8]}","c(cc(c1)C#N)cc1N(C)C","nr2","25.0","?C","","-","FEOIEIQLXALHPJ-UHFFFAOYSA"
"CN(C)C1=CC=C(C=C1)C#N","-","R945233","M24882","-","-","4-Cyano-N,N-dimethylaniline","-","Koerner","charochkina","A5793","-","-","-","1.777","Log unit","1.777","Log unit","N(c1ccc(cc1)C#N)(C)C","4","","{nr2=[4]}","c(cc(c1)N(C)C)c(c1)C#N","nr2","25.0","?C","","-","JYMNQRQQBJIMCV-UHFFFAOYSA"
"NC1=CC(=CC(=C1)N(=O)=O)C#N","-","R945234","M1107063","-","-","5-cyano-3-nitroaniline","-","Koerner","charochkina","A5793","-","-","-","0.46","Log unit","0.46","Log unit","N(=O)(=O)c1cc(cc(c1)C#N)N","4","","{nr2=[4, 7]}","c(c(cc1N(=O)=O)N)c(c1)C#N","nr2","25.0","?C","true","-","OGCQBJWMDPBFTC-UHFFFAOYSA"
"C1CCC(CC1)NC1=CC=CC=C1","-","R945235","M25812","-","-","N-Cyclohexylaniline","-","Koerner","charochkina","A5793","-","-","-","5.6","Log unit","5.6","Log unit","N(c1ccccc1)C1CCCCC1","4","","{nr2=[4]}","c(ccc1NC(CCC2)CC2)cc1","nr2","25.0","?C","","-","TXTHKGMZDDTZFD-UHFFFAOYSA"
"CN(C1CCCCC1)C1=CC=CC=C1","-","R945236","M1107064","-","-","N-cyclohexyl-N-methylaniline","-","Koerner","charochkina","A5793","-","-","-","6.35","Log unit","6.35","Log unit","N(c1ccccc1)(C)C1CCCCC1","4","","{nr2=[4]}","c(ccc1N(C)C(CCC2)CC2)cc1","nr2","25.0","?C","","-","HRBASXKYUKFHKC-UHFFFAOYSA"
"CC1=CC=CC=C1NC1CCCCC1","-","R945237","M1107065","-","-","N-cyclohexyl-2-methylaniline","-","Koerner","charochkina","A5793","-","-","-","5.34","Log unit","5.34","Log unit","N(c1ccccc1C)C1CCCCC1","4","","{nr2=[4]}","c(ccc1NC(CCC2)CC2)cc1C","nr2","25.0","?C","","-","QOFLOIOTQFYZFB-UHFFFAOYSA"
"C1CCC(C1)NC1=CC=CC=C1","-","R945238","M1107066","-","-","N-cyclopentylaniline","-","Koerner","charochkina","A5793","-","-","-","5.3","Log unit","5.3","Log unit","N(c1ccccc1)C1CCCC1","4","","{nr2=[4]}","c(ccc1NC(CC2)CC2)cc1","nr2","25.0","?C","","-","WEULTTCXSOUGPM-UHFFFAOYSA"
"CN(C1CCCC1)C1=CC=CC=C1","-","R945239","M1107067","-","-","N-cyclopentyl-N-methylaniline","-","Koerner","charochkina","A5793","-","-","-","6.71","Log unit","6.71","Log unit","N(c1ccccc1)(C)C1CCCC1","4","","{nr2=[4]}","c(ccc1N(C)C(CC2)CC2)cc1","nr2","25.0","?C","","-","ZPWSDUMJLDOMDQ-UHFFFAOYSA"
"CC1=CC=CC=C1NC1CCCC1","-","R945240","M1107068","-","-","N-cyclopentyl-2-methylaniline","-","Koerner","charochkina","A5793","-","-","-","5.07","Log unit","5.07","Log unit","N(c1ccccc1C)C1CCCC1","4","","{nr2=[4]}","c(ccc1NC(CC2)CC2)cc1C","nr2","25.0","?C","","-","XLQBKVMDWIZQEV-UHFFFAOYSA"
"NC1=C(O)C([NH3+])=C(O)C([NH3+])=C1","-","R945241","M1107069","-","-","3,5-diamino-2,4-dihydroxy-aniline","-","Koerner","charochkina","A5793","-","-","-","1.2","Log unit","1.2","Log unit","Nc1c(O)c(c(c(c1)[NH2+])O)[NH2+]","6","","{nr2=[6], oh=[0, 9]}","O-c(c(cc1[N+1])N)c(c1O)[N+1]","nr2","25.0","?C","","-","LAOFSPKFCIZXHB-UHFFFAOYSA"
"NC1=CC(N)=C(O)C(N)=C1","-","R945242","M31156","-","-","3,5-diamino-2-hydroxy-aniline","-","Koerner","charochkina","A5793","-","-","-","10.5","Log unit","10.5","Log unit","Oc1c(cc(cc1N)N)N","9","","{nr2=[4, 5, 7], oh=[9]}","c(c(cc1N)N)c(N)c1O","oh","25.0","?C","","-","SUYLOMATYCPVFT-UHFFFAOYSA"
"NC1=CC([NH3+])=CC(N)=C1O","-","R945243","M31156","-","-","3,5-diamino-2-hydroxy-aniline","-","Koerner","charochkina","A5793","-","-","-","2.8","Log unit","2.8","Log unit","Nc1c(O)c(N)cc([NH2+])c1","1","","{nr2=[1, 5], oh=[3]}","c1(N)c(O)c(N)cc([N+1])c1","nr2","25.0","?C","true","-","SUYLOMATYCPVFT-UHFFFAOYSA"
"NC1=C(O)C([NH3+])=CC([NH3+])=C1","-","R945244","M31156","-","-","3,5-diamino-2-hydroxy-aniline","-","Koerner","charochkina","A5793","-","-","-","1.3","Log unit","1.3","Log unit","Nc1c(O)c([NH2+])cc([NH2+])c1","1","","{nr2=[1], oh=[3]}","c1(N)c(O)c([N+1])cc([N+1])c1","nr2","25.0","?C","","-","SUYLOMATYCPVFT-UHFFFAOYSA"
"NC1=C(Br)C=C(Br)C=C1","-","R945245","M22510","-","-","2,4-dibromo-aniline","-","Koerner","charochkina","A5793","-","-","-","2.3","Log unit","2.3","Log unit","Nc1c(cc(Br)cc1)Br","6","","{nr2=[6]}","Br-c(cc(Br)c1N)cc1","nr2","25.0","?C","","-","DYSRXWYRUJCNFI-UHFFFAOYSA"
"NC1=CC(Br)=CC=C1Br","-","R945246","M73204","-","-","2,5-Dibromoaniline","-","Koerner","charochkina","A5793","-","-","-","1.44","Log unit","1.44","Log unit","Nc1cc(Br)ccc1Br","8","","{nr2=[8]}","Br-c(ccc1Br)cc1N","nr2","25.0","?C","","-","WRTAZRGRFBCKBU-UHFFFAOYSA"
"NC1=C(Br)C=CC=C1Br","-","R945247","M12960","-","-","2,6-dibromo-aniline","-","Koerner","charochkina","A5793","-","-","-","0.365","Log unit","0.365","Log unit","Nc1c(Br)cccc1Br","8","","{nr2=[8]}","Br-c(ccc1)c(c1Br)N","nr2","25.0","?C","","-","XIRRDAWDNHRRLB-UHFFFAOYSA"
"NC1=CC(Br)=CC(Br)=C1","-","R945248","M124452","-","-","3,5-dibromo-aniline","-","Koerner","charochkina","A5793","-","-","-","2.36","Log unit","2.36","Log unit","Nc1cc(Br)cc(Br)c1","8","","{nr2=[8]}","Br-c(cc(Br)c1)cc1N","nr2","25.0","?C","","-","RVNUUWJGSOHMRR-UHFFFAOYSA"
"NC1=CC(Br)=C(O)C(Br)=C1","-","R945249","M3783","-","-","3,5-dibromo-4-hydroxy-aniline","-","Koerner","charochkina","A5793","-","-","-","3.2","Log unit","3.2","Log unit","Nc1cc(Br)c(O)c(c1)Br","5","","{nr2=[5], oh=[7]}","Br-c(cc(c1)N)c(O)c1Br","nr2","25.0","?C","","-","HFYPXERYZGFDBD-UHFFFAOYSA"
"COC1=C(Br)C=C(N)C=C1Br","-","R945250","M1107070","-","-","3,5-dibromo-4-methoxy-aniline","-","Koerner","charochkina","A5793","-","-","-","2.98","Log unit","2.98","Log unit","Nc1cc(Br)c(c(c1)Br)OC","5","","{nr2=[5]}","Br-c(cc(c1)N)c(c1Br)OC","nr2","25.0","?C","","-","UKRJDZBIXJWPJM-UHFFFAOYSA"
"CC1=CC(Br)=C(N)C(Br)=C1","-","R945251","M78049","-","-","2,6-dibromo-4-methyl-aniline","-","Koerner","charochkina","A5793","-","-","-","0.69","Log unit","0.69","Log unit","Nc1c(Br)cc(cc1Br)C","9","","{nr2=[9]}","Br-c(cc(c1)C)c(c1Br)N","nr2","25.0","?C","","-","ATDIROHVRVQMRO-UHFFFAOYSA"
"CC1=C(Br)C=C(N)C=C1Br","-","R945252","M1107071","-","-","3,5-dibromo-4-methyl-aniline","-","Koerner","charochkina","A5793","-","-","-","2.87","Log unit","2.87","Log unit","Nc1cc(Br)c(c(c1)Br)C","5","","{nr2=[5]}","Br-c(cc(c1)N)c(c1Br)C","nr2","25.0","?C","","-","AQZDIKCNODUMNY-UHFFFAOYSA"
"NC1=C(Br)C=C(Br)C=C1N(=O)=O","-","R945253","M7780","-","-","2,4-Dibromo-6-nitroaniline","-","Koerner","charochkina","A5793","-","-","-","-2.98","Log unit","-2.98","Log unit","Nc1c(cc(Br)cc1N(=O)=O)Br","6","","{nr2=[6, 9]}","Br-c(cc(Br)c1N)cc1N(=O)=O","nr2","25.0","?C","true","-","OBTUHOVIVLDLLD-UHFFFAOYSA"
"CCCCOC1=CC(N)=C(OCCCC)C=C1","-","R945254","M65761","-","-","2,5-di-n-butoxyaniline","-","Koerner","charochkina","A5793","-","-","-","3.96","Log unit","3.96","Log unit","Nc1c(ccc(c1)OCCCC)OCCCC","4","","{nr2=[4]}","c(cc(c1N)OCCCC)c(c1)OCCCC","nr2","25.0","?C","","-","KGHVJZBVGOZVPN-UHFFFAOYSA"
"CCCCN(CCCC)C1=CC=CC=C1","-","R945255","M22452","-","-","N,N-di-n-Butylaniline","-","Koerner","charochkina","A5793","-","-","-","6.3","Log unit","6.3","Log unit","N(c1ccccc1)(CCCC)CCCC","4","","{nr2=[4]}","c(ccc1N(CCCC)CCCC)cc1","nr2","25.0","?C","","-","FZPXKEPZZOEPGX-UHFFFAOYSA"
"CC(C)(C)C1=CC(=CC(N)=C1)C(C)(C)C","-","R945256","M6804","-","-","3,5-di-t-butyl-aniline","-","Koerner","charochkina","A5793","-","-","-","4.97","Log unit","4.97","Log unit","Nc1cc(cc(c1)C(C)(C)C)C(C)(C)C","8","","{nr2=[8]}","c(c(cc1C(C)(C)C)N)c(c1)C(C)(C)C","nr2","25.0","?C","","-","MJKNHXCPGXUEDO-UHFFFAOYSA"
"CC(C)C1=C(C(=CC(N)=C1)C(C)(C)C)N(=O)=O","-","R945257","M1107072","-","-","3,5-di-t-butyl-4-nitro-aniline","-","Koerner","charochkina","A5793","-","-","-","2.93","Log unit","2.93","Log unit","Nc1cc(c(c(c1)C(C)(C)C)N(=O)=O)C(C)C","8","","{nr2=[8, 11]}","c(c(cc1C(C)(C)C)N)c(c1N(=O)=O)C(C)C","nr2","25.0","?C","true","-","XJIUZKSXEMLCSG-UHFFFAOYSA"
"NC1=CC=C(Cl)C=C1Cl","-","R945258","M5772","-","-","2,4-dichloro-aniline","-","Koerner","charochkina","A5793","-","-","-","2.025","Log unit","2.025","Log unit","Nc1ccc(Cl)cc1Cl","5","","{nr2=[5]}","Cl-c(ccc1N)cc1Cl","nr2","25.0","?C","","-","KQCMTOWTPBNWDB-UHFFFAOYSA"
"NC1=CC(Cl)=CC=C1Cl","-","R945259","M527","-","-","2,5-dichloro-aniline","-","Koerner","charochkina","A5793","-","-","-","1.57","Log unit","1.57","Log unit","Nc1cc(Cl)ccc1Cl","8","","{nr2=[8]}","Cl-c(ccc1Cl)cc1N","nr2","25.0","?C","","-","AVYGCQXNNJPXSS-UHFFFAOYSA"
"NC1=CC=C(Cl)C(Cl)=C1","-","R945260","M10286","-","-","3,4-dichloro-aniline","-","Koerner","charochkina","A5793","-","-","-","2.985","Log unit","2.985","Log unit","Nc1ccc(Cl)c(Cl)c1","5","","{nr2=[5]}","Cl-c(ccc1N)c(Cl)c1","nr2","25.0","?C","","-","SDYWXFYBZPNOFX-UHFFFAOYSA"
"NC1=CC(Cl)=CC(Cl)=C1","-","R945261","M11294","-","-","3,5-dichloro-aniline","-","Koerner","charochkina","A5793","-","-","-","2.375","Log unit","2.375","Log unit","Nc1cc(Cl)cc(Cl)c1","8","","{nr2=[8]}","Cl-c(cc(Cl)c1)cc1N","nr2","25.0","?C","","-","UQRLKWGPEVNVHT-UHFFFAOYSA"
"NC1=C(Cl)C(Cl)=CC=C1","-","R945262","M999","-","-","2,3-DICHLOROANILINE","-","Koerner","charochkina","A5793","-","-","-","1.7355","Log unit","1.7355","Log unit","Nc1c(c(Cl)ccc1)Cl","8","","{nr2=[8]}","Cl-c(ccc1)c(Cl)c1N","nr2","25.0","?C","","-","BRPSAOUFIJSKOT-UHFFFAOYSA"
"NC1=C(Cl)C=CC=C1Cl","-","R945263","M22349","-","-","2,6-DICHLOROANILINE","-","Koerner","charochkina","A5793","-","-","-","0.422","Log unit","0.422","Log unit","Nc1c(Cl)cccc1Cl","8","","{nr2=[8]}","Cl-c(ccc1)c(c1Cl)N","nr2","25.0","?C","","-","JDMFXJULNGEPOI-UHFFFAOYSA"
"NC1=CC(Cl)=CC(Cl)=C1","-","R945265","M11294","-","-","3,5-Dichloroaniline","-","Koerner","charochkina","A5793","-","-","-","2.371","Log unit","2.371","Log unit","Nc1cc(Cl)cc(Cl)c1","8","","{nr2=[8]}","Cl-c(cc(Cl)c1)cc1N","nr2","25.0","?C","","-","UQRLKWGPEVNVHT-UHFFFAOYSA"
"CSC1=CC(Cl)=C(N)C=C1Cl","-","R945266","M1107073","-","-","2,5-dichloro-4-methylthioaniline","-","Koerner","charochkina","A5793","-","-","-","1.7","Log unit","1.7","Log unit","Nc1cc(Cl)c(SC)cc1Cl","6","","{nr2=[6]}","Cl-c(cc(c1Cl)N)c(SC)c1","nr2","25.0","?C","","-","LEWQGBAKRCUTMO-UHFFFAOYSA"
"CSC1=CC=C(Cl)C(N)=C1Cl","-","R945267","M1107074","-","-","2,6-dichloro-4-methylthioaniline","-","Koerner","charochkina","A5793","-","-","-","0.35","Log unit","0.35","Log unit","Nc1c(Cl)ccc(SC)c1Cl","10","","{nr2=[10]}","Cl-c(ccc1SC)c(c1Cl)N","nr2","25.0","?C","","-","LNCNFPSMZVDXOH-UHFFFAOYSA"
"CSC1=C(Cl)C=C(N)C=C1Cl","-","R945268","M1107075","-","-","3,5-dichloro-4-methylthioaniline","-","Koerner","charochkina","A5793","-","-","-","1.67","Log unit","1.67","Log unit","Nc1cc(Cl)c(SC)c(c1)Cl","5","","{nr2=[5]}","Cl-c(cc(c1)N)c(SC)c1Cl","nr2","25.0","?C","","-","HYVHLWATOYTKGU-UHFFFAOYSA"
"NC1=C(Cl)C=C(Cl)C=C1N(=O)=O","-","R945269","M4819","-","-","2,4-dichloro-6-nitro-aniline","-","Koerner","charochkina","A5793","-","-","-","-3.32","Log unit","-3.32","Log unit","Nc1c(cc(Cl)cc1N(=O)=O)Cl","6","","{nr2=[6, 9]}","Cl-c(cc(Cl)c1N)cc1N(=O)=O","nr2","25.0","?C","true","-","IZEZAMILKKYOPW-UHFFFAOYSA"
"NC1=CC(Cl)=C(C=C1Cl)N(=O)=O","-","R945270","M31354","-","-","2,5-dichloro-4-nitro","-","Koerner","charochkina","A5793","-","-","-","-1.74","Log unit","-1.74","Log unit","N(=O)(=O)c1cc(Cl)c(cc1Cl)N","6","","{nr2=[6, 11]}","Cl-c(cc(c1Cl)N(=O)=O)c(c1)N","nr2","25.0","?C","true","-","JBXZCPXEYAEMJS-UHFFFAOYSA"
"NC1=C(Cl)C=C(C=C1Cl)N(=O)=O","-","R945271","M801","-","-","2,6-dichloro-4-nitro-aniline","-","Koerner","charochkina","A5793","-","-","-","-2.55","Log unit","-2.55","Log unit","N(=O)(=O)c1cc(Cl)c(c(c1)Cl)N","5","","{nr2=[5, 11]}","Cl-c(cc(c1)N(=O)=O)c(c1Cl)N","nr2","25.0","?C","true","-","BIXZHMJUSMUDOQ-UHFFFAOYSA"
"CCOC1=CC(N)=C(OCC)C=C1","-","R945272","M65164","-","-","2,5-Diethoxyaniline","-","Koerner","charochkina","A5793","-","-","-","3.94","Log unit","3.94","Log unit","Nc1c(ccc(c1)OCC)OCC","4","","{nr2=[4]}","c(cc(c1N)OCC)c(c1)OCC","nr2","25.0","?C","","-","XPKFTIYOZUJAGA-UHFFFAOYSA"
"CCN(CC)C1=CC=CC=C1","-","R945273","M3195","-","-","n,n-diethylaniline","-","Koerner","charochkina","A5793","-","-","-","6.57","Log unit","6.57","Log unit","N(c1ccccc1)(CC)CC","4","","{nr2=[4]}","c(ccc1N(CC)CC)cc1","nr2","25.0","?C","","-","GGSUCNLOZRCGPQ-UHFFFAOYSA"
"CCN(CC)C1=CC=C(N)C=C1","-","R945274","M18049","-","-","4-diethylaminoaniline","-","Koerner","charochkina","A5793","-","-","-","7.96","Log unit","7.96","Log unit","N(c1ccc(cc1)N)(CC)CC","4","","{nr2=[4, 11]}","c(cc(c1)N(CC)CC)c(c1)N","nr2","25.0","?C","true","-","QNGVNLMMEQUVQK-UHFFFAOYSA"
"CCN(CC)CCOC(=O)C1=CC=C(N)C=C1","-","R945275","M6716","-","-","4-(2-diethylamino)ethoxycarbonylaniline","-","Koerner","charochkina","A5793","-","-","-","8.945","Log unit","8.945","Log unit","N(CCOC(=O)c1ccc(cc1)N)(CC)CC","9","","{nr2=[9, 16]}","c(cc(c1)C(=O)OCCN(CC)CC)c(c1)N","nr2","25.0","?C","true","-","MFDFERRIHVXMIY-UHFFFAOYSA"
"CCN(CC)C(COC(=O)C1=CC=C(N)C=C1)CC(C)C","-","R945276","M18012","-","-","4-[(2-diethylamino-4-methyl)pentyloxycarbonyl)]aniline","-","Koerner","charochkina","A5793","-","-","-","9.4","Log unit","9.4","Log unit","N(C(COC(=O)c1ccc(cc1)N)CC(C)C)(CC)CC","9","","{nr2=[9, 20]}","c(cc(c1)C(=O)OCC(N(CC)CC)CC(C)C)c(c1)N","nr2","25.0","?C","true","-","MLHBDHJHNDJBLI-UHFFFAOYSA"
"CCN(CC)C1=C(C=C(C=C1)N(=O)=O)N(=O)=O","-","R945277","M1107076","-","-","N,N-diethyl-2,4-dinitroaniline","-","Koerner","charochkina","A5793","-","-","-","0.195","Log unit","0.195","Log unit","N(=O)(=O)c1c(ccc(c1)N(=O)=O)N(CC)CC","4","","{nr2=[4, 7, 14]}","c(cc(c1N(=O)=O)N(CC)CC)c(c1)N(=O)=O","nr2","25.0","?C","true","-","RAYYZJTYTUPECK-UHFFFAOYSA"
"CCN(CC)C1=CC=CC=C1C","-","R945278","M22324","-","-","N,N-diethyl-2-methylaniline","-","Koerner","charochkina","A5793","-","-","-","7.2395","Log unit","7.2395","Log unit","N(c1ccccc1C)(CC)CC","4","","{nr2=[4]}","c(ccc1N(CC)CC)cc1C","nr2","25.0","?C","","-","YQYUUNRAPYPAPC-UHFFFAOYSA"
"CCN(CC)C1=CC=CC(C)=C1","-","R945279","M17983","-","-","N,N-Diethyl-3-methylaniline","-","Koerner","charochkina","A5793","-","-","-","6.7","Log unit","6.7","Log unit","N(c1cccc(c1)C)(CC)CC","4","","{nr2=[4]}","c(ccc1N(CC)CC)c(c1)C","nr2","25.0","?C","","-","CIPVVROJHKLHJI-UHFFFAOYSA"
"CCN(CC)C1=CC=C(C=C1)N=O","-","R945280","M19041","-","-","N,N-Diethyl-4-nitrosoaniline","-","Koerner","charochkina","A5793","-","-","-","4.11","Log unit","4.11","Log unit","N(c1ccc(cc1)N=O)(CC)CC","4","","{nr2=[4]}","c(cc(c1)N(CC)CC)c(c1)N=O","nr2","25.0","?C","","-","OLNMJIHADFYHAK-UHFFFAOYSA"
"NC1=CC(I)=CC(I)=C1","-","R945281","M124453","-","-","3,5-di-iodoaniline","-","Koerner","charochkina","A5793","-","-","-","2.368","Log unit","2.368","Log unit","Nc1cc(I)cc(I)c1","8","","{nr2=[8]}","I-c(cc(I)c1)cc1N","nr2","25.0","?C","","-","CHLBMXJABUVAJX-UHFFFAOYSA"
"CSC1=C(I)C=C(N)C=C1I","-","R945282","M1107077","-","-","2,5-diiodo-4-methylthioaniline","-","Koerner","charochkina","A5793","-","-","-","1.15","Log unit","1.15","Log unit","Nc1cc(I)c(SC)c(c1)I","5","","{nr2=[5]}","I-c(cc(c1)N)c(SC)c1I","nr2","25.0","?C","","-","PTEBHGKNIMBJFJ-UHFFFAOYSA"
"COC1=CC(N)=C(OC)C=C1","-","R945283","M18419","-","-","2,5-DIMETHOXYANILINE","-","Koerner","charochkina","A5793","-","-","-","3.93","Log unit","3.93","Log unit","Nc1c(ccc(c1)OC)OC","6","","{nr2=[6]}","c(cc(OC)c1N)c(c1)OC","nr2","25.0","?C","","-","NAZDVUBIEPVUKE-UHFFFAOYSA"
"CC(C)NCC(O)C1=CC=CC(N)=C1","-","R945284","M1107078","-","-","1-amino-3-(1-hydroxy-2-isopropylamino)ethylbenzene","-","Koerner","charochkina","A5793","-","-","-","9.6","Log unit","9.6","Log unit","N(CC(c1cccc(c1)N)O)C(C)C","7","","{nr2=[7, 13], oh=[5]}","c(ccc1C(O)CNC(C)C)c(c1)N","nr2","25.0","?C","true","-","JFDARPRNBWSOHO-UHFFFAOYSA"
"NC1=C(O)C=C(O)C=C1","-","R945285","M108704","-","-","2,4-dihydroxy-aniline","-","Koerner","charochkina","A5793","-","-","-","5.7","Log unit","5.7","Log unit","Nc1ccc(cc1O)O","3","","{nr2=[3], oh=[5, 8]}","c(cc(N)c1O)c(c1)O","nr2","25.0","?C","","-","ROCVGJLXIARCAC-UHFFFAOYSA"
"NC1=C(O)C=C(O)C=C1","-","R945286","M108704","-","-","2,4-dihydroxy-aniline","-","Koerner","charochkina","A5793","-","-","-","9.3","Log unit","9.3","Log unit","Oc1c(ccc(c1)O)N","5","","{nr2=[3], oh=[5, 8]}","c(cc(N)c1O)c(c1)O","oh","25.0","?C","true","-","ROCVGJLXIARCAC-UHFFFAOYSA"
"NC1=C([O-])C=C(O)C=C1","-","R945287","M108704","-","-","2,4-dihydroxy-aniline","-","Koerner","charochkina","A5793","-","-","-","11.3","Log unit","11.3","Log unit","Oc1ccc(N)c([O-])c1","8","","{nr2=[3], oh=[8]}","c(cc(N)c1[O-1])c(c1)O","oh","25.0","?C","","-","ROCVGJLXIARCAC-UHFFFAOYSA"
"NC1=C(O)C=CC=C1O","-","R945288","M133902","-","-","2,6-dihydroxy-aniline","-","Koerner","charochkina","A5793","-","-","-","5.1","Log unit","5.1","Log unit","Nc1c(cccc1O)O","5","","{nr2=[5], oh=[3, 8]}","c(cc(O)c1N)cc1O","nr2","25.0","?C","","-","JEPCLNGRAIMPQV-UHFFFAOYSA"
"NC1=C(O)C=CC=C1O","-","R945289","M133902","-","-","2,6-dihydroxy-aniline","-","Koerner","charochkina","A5793","-","-","-","9.3","Log unit","9.3","Log unit","Oc1cccc(c1N)O","3","","{nr2=[5], oh=[3, 8]}","c(cc(O)c1N)cc1O","oh","25.0","?C","true","-","JEPCLNGRAIMPQV-UHFFFAOYSA"
"NC1=C([O-])C=CC=C1O","-","R945290","M133902","-","-","2,6-dihydroxy-aniline","-","Koerner","charochkina","A5793","-","-","-","11.3","Log unit","11.3","Log unit","Oc1cccc([O-])c1N","8","","{nr2=[5], oh=[8]}","c(cc([O-1])c1N)cc1O","oh","25.0","?C","","-","JEPCLNGRAIMPQV-UHFFFAOYSA"
"CC(C)N(C(C)C)C1=CC=CC=C1","-","R945291","M1107079","-","-","N,N-diisopropylaniline","-","Koerner","charochkina","A5793","-","-","-","7.37","Log unit","7.37","Log unit","N(c1ccccc1)(C(C)C)C(C)C","4","","{nr2=[4]}","c(ccc1N(C(C)C)C(C)C)cc1","nr2","25.0","?C","","-","OVSARSKQWCLSJT-UHFFFAOYSA"
"CC(N)C(O)C1=CC=C(O)C(O)=C1","-","R945292","M3133","-","-","1-(2-amino-1-hydroxy)propyl-3,4-dihydroxybenzene","-","Koerner","charochkina","A5793","-","-","-","8.8","Log unit","8.8","Log unit","NC(C(c1ccc(O)c(O)c1)O)C","8","","{nr2=[8], oh=[0, 6, 11]}","O-c(ccc1C(O)C(N)C)c(O)c1","nr2","25.0","?C","","-","GEFQWZLICWMTKF-UHFFFAOYSA"
"CC(N)C(O)C1=CC=C(O)C=C1","-","R945293","M38200","-","-","1-(2-amino-1-hydroxy)propyl-4-hydroxybenzene","-","Koerner","charochkina","A5793","-","-","-","8.7","Log unit","8.7","Log unit","NC(C(c1ccc(O)cc1)O)C","8","","{nr2=[8], oh=[0, 6]}","O-c(ccc1C(O)C(N)C)cc1","nr2","25.0","?C","","-","JAYBQRKXEFDRER-UHFFFAOYSA"
"NC1=CC(I)=CC(I)=C1","-","R945294","M124453","-","-","3,5-di-iodo-aniline","-","Koerner","charochkina","A5793","-","-","-","2.4","Log unit","2.4","Log unit","Nc1cc(I)cc(I)c1","8","","{nr2=[8]}","I-c(cc(I)c1)cc1N","nr2","25.0","?C","","-","CHLBMXJABUVAJX-UHFFFAOYSA"
"COC1=CC(OC)=CC(N)=C1","-","R945295","M80090","-","-","3,5-dimethoxy-aniline","-","Koerner","charochkina","A5793","-","-","-","3.82","Log unit","3.82","Log unit","Nc1cc(cc(c1)OC)OC","6","","{nr2=[6]}","c(c(cc1OC)N)c(c1)OC","nr2","25.0","?C","","-","WNRGWPVJGDABME-UHFFFAOYSA"