Smiles,CASRN,Record ID,Molecule ID,External ID,N,Name,Introducer,Modifer,Article ID,PUBMED ID,PAGE,TABLE,pKa,pKa Unit,Temperature,Temperature Unit,Ionizable center smiles,IC group
CCC1CCN(CC1)C(C)C=C(C1=CC=CS1)C1=CC=CS1,-,R945742,M1107228,-,-,"4-methyl-1-(1-methyl-3,3-dithienyl)prop-2-enylpiperidine",Koerner,charochkina,A5793,-,-,-,8.15,Log unit,25,?C,N1(C(C=C(c2sccc2)c2sccc2)C)CCC(CC)CC1,13
CCC(C)N1CCC(CC1)(C1=CC=CC=C1)C1=CC=CC=C1,-,R945743,M1107229,-,-,1-(1-methylpropyl)-4-4-diphenylpiperidine,Koerner,charochkina,A5793,-,-,-,9.67,Log unit,25,?C,N1(CCC(c2ccccc2)(CC1)c1ccccc1)C(CC)C,7
CN1C(C)(C)CCCC1(C)C,-,R945744,M17570,-,-,"1,2,2,6,6-Pentamethylpiperidine",Koerner,charochkina,A5793,-,-,-,11.19,Log unit,25,?C,N1(C)C(CCCC1(C)C)(C)C,0
CN1CC(C)(C)CC(C)(C)C1,-,R945745,M1107230,-,-,"1,3,3,5,5-pentamethylpiperidine",Koerner,charochkina,A5793,-,-,-,9.43,Log unit,25,?C,N1(CC(CC(C1)(C)C)(C)C)C,0
C(CN1CCCCC1)N1CCCCC1,-,R945746,M25974,-,-,1-(2-piperidino)ethylpiperidine,Koerner,charochkina,A5793,-,-,-,9.17,Log unit,25,?C,N1(CCCCC1)CCN1CCCCC1,5
C(C[NH+]1CCCCC1)N1CCCCC1,-,R945747,M25974,-,-,1-(2-piperidino)ethylpiperidine,Koerner,charochkina,A5793,-,-,-,6.55,Log unit,25,?C,[NH+]1(CCCCC1)CCN1CCCCC1,5
NC1CCCCC1CCCN1CCCCC1,-,R945748,M1107231,-,-,1-(3-piperidino)propylpiperidine,Koerner,charochkina,A5793,-,-,-,9.95,Log unit,25,?C,N1(CCCCC1)CCCC1CCCCC1N,4
C1CCC(NC1)C1CCCCN1,-,R945749,M740932,-,-,2-(2-piperidyl)piperidine,Koerner,charochkina,A5793,-,-,-,9.9,Log unit,25,?C,N1CCCCC1C1NCCCC1,0
CCCN1CCCCC1,-,R945750,M30391,-,-,1-n-propylpiperidine,Koerner,charochkina,A5793,-,-,-,10.41,Log unit,25,?C,N1(CCCCC1)CCC,4
CCCC1CCCCN1,-,R945751,M7222,-,-,2-n-propyl-piperidine,Koerner,charochkina,A5793,-,-,-,10.9,Log unit,25,?C,N1CCCCC1CCC,0
C1CCC([NH2+]C1)C1=CN=CC=C1,-,R945752,M7019,-,-,2-(3-Pyridyl)piperidine,Koerner,charochkina,A5793,-,-,-,3.2,Log unit,25,?C,n1cccc(c1)C1[NH2+]CCCC1,0
CC1CCN(C)C(C)(C)C1,-,R945753,M1107232,-,-,"1,2,2,4-tetramethylpiperidine",Koerner,charochkina,A5793,-,-,-,10.18,Log unit,25,?C,N1(CCC(CC1(C)C)C)C,1
CC1CCCC(C)(C)N1C,-,R945754,M1107233,-,-,"1,2,2,6-tetramethylpiperidine",Koerner,charochkina,A5793,-,-,-,10.7,Log unit,25,?C,N1(C)C(CCCC1(C)C)C,0
CC1(C)CCCC(C)(C)N1,-,R945755,M23589,-,-,"2,2,6,6-Tetramethylpiperidine",Koerner,charochkina,A5793,-,-,-,11.07,Log unit,25,?C,N1C(CCCC1(C)C)(C)C,0
CC1CCCC(C)N1C,-,R945756,M29643,-,-,"cis-1,2,6-Trimethylpiperidine",Koerner,charochkina,A5793,-,-,-,10.15,Log unit,25,?C,N1(C(CCCC1C)C)C,3
CC1(C)CNCC(C)(C)C1,-,R945757,M1107234,-,-,"3,3,5,5-tetramethylpiperidine",Koerner,charochkina,A5793,-,-,-,10.1,Log unit,25,?C,N1CC(CC(C1)(C)C)(C)C,0
CC1CCN(C)C(C)C1,-,R945758,M1107235,-,-,"1,2,4-trimethylpiperidine",Koerner,charochkina,A5793,-,-,-,10.23,Log unit,25,?C,N1(CCC(CC1C)C)C,5
CN1CCCC(C)(C)C1,-,R945759,M1107236,-,-,"1,3,3-trimethylpiperidine",Koerner,charochkina,A5793,-,-,-,9.77,Log unit,25,?C,N1(CCCC(C)(C)C1)C,6
CC1CC(C)CN(C)C1,-,R945760,M1107237,-,-,"1,3,5-trimethylpiperidine",Koerner,charochkina,A5793,-,-,-,9.995,Log unit,25,?C,N1(CC(CC(C1)C)C)C,1
CC1CCNC(C)(C)C1,-,R945761,M1107238,-,-,"2,2,4-trimethylpiperidine",Koerner,charochkina,A5793,-,-,-,11.04,Log unit,25,?C,N1CCC(C)CC1(C)C,0
CC1CCCC(C)(C)N1,-,R945762,M1107239,-,-,"2,2,6-Trimethylpiperidine",Koerner,charochkina,A5793,-,-,-,11.21,Log unit,25,?C,N1C(CCCC1(C)C)C,0
C1CCNC1,-,R945763,M10105,-,-,pyrrolidine,Koerner,charochkina,A5793,-,-,-,11.02,Log unit,25,?C,N1CCCC1,0
NCCN1CCCC1,-,R945764,M31719,-,-,"Pyrrolidine,1-(2-amminoethyl)-",Koerner,charochkina,A5793,-,-,-,9.7,Log unit,25,?C,N1(CCCC1)CCN,3
C(N1CCCCC1)C1=CC=CC=C1,-,R945765,M27561,-,-,"Pyrrolidine, 1-benzyl-",Koerner,charochkina,A5793,-,-,-,9.5,Log unit,25,?C,N1(Cc2ccccc2)CCCCC1,5
C(C1CCCN1)C1=CC=CC=C1,-,R945766,M134258,-,-,"Pyrrolidine,2-benzyl-",Koerner,charochkina,A5793,-,-,-,10.31,Log unit,25,?C,N1C(Cc2ccccc2)CCC1,6
CCCCN1CCCC1,-,R945767,M23571,-,-,"Pyrrolidine,1-n-butyl-",Koerner,charochkina,A5793,-,-,-,10.4,Log unit,25,?C,N1(CCCC1)CCCC,3
CCCCN1CCCC1C,-,R945768,M1107240,-,-,"Pyrrolidine, 1-n-butyl-2-methyl-",Koerner,charochkina,A5793,-,-,-,10.61,Log unit,25,?C,N1(CCCC1C)CCCC,3
CCCCC1CCCN1C,-,R945769,M1107241,-,-,"Pyrrolidine,2-n-butyl-1-methyl-",Koerner,charochkina,A5793,-,-,-,10.2,Log unit,25,?C,N1(CCCC1CCCC)C,1
ClC1=CC=C(CC(=CCN2CCCC2)C2=CC=CC=C2)C=C1,-,R945770,M17990,-,-,"Pyrrolidine,1-(4-p-chlorophenyl-3-phenyl)but-2-enyl-:",Koerner,charochkina,A5793,-,-,-,8.77,Log unit,25,?C,N1(CC=C(Cc2ccc(Cl)cc2)c2ccccc2)CCCC1,15
N#CCN1CCCC1,-,R945771,M37143,-,-,"Pyrrolidine, 1-cyanomethyl-",Koerner,charochkina,A5793,-,-,-,4.8,Log unit,25,?C,N1(CCCC1)CC#N,3
C1CCN(C1)C1CCCCC1,-,R945772,M1107242,-,-,"Pyrrolidine, 11-cyclohexyl-",Koerner,charochkina,A5793,-,-,-,10.7,Log unit,25,?C,N1(CCCC1)C1CCCCC1,3
C1CNC(C1)C1CCCCC1,-,R945773,M134255,-,-,"Pyrrolidine,2-cyclohexyl-",Koerner,charochkina,A5793,-,-,-,10.76,Log unit,25,?C,N1CCCC1C1CCCCC1,0
CC1CCCN1C,-,R945774,M67684,-,-,"Pyrrolidine,1,2-dimethyl-",Koerner,charochkina,A5793,-,-,-,10.2,Log unit,25,?C,N1(CCCC1C)C,3
CCN1CCCC1N(C)C,-,R945775,M1107243,-,-,"Pyrrolidine,1-(2-dimethylamino)ethyl-",Koerner,charochkina,A5793,-,-,-,9.439,Log unit,25,?C,N1(CCCC1N(C)C)CC,3
CCC1CCCN1,-,R945776,M134229,-,-,"Pyrrolidine,2-ethyl-",Koerner,charochkina,A5793,-,-,-,10.6,Log unit,25,?C,N1CCCC1CC,0
CCN1CCCC1C,-,R945777,M1107244,-,-,"Pyrrolidine, 1-ethyl-2-methyl",Koerner,charochkina,A5793,-,-,-,10.56,Log unit,25,?C,N1(CCCC1C)CC,3
CCC1CCCN1C,-,R945778,M1107245,-,-,"Pyrolidine,2-ethyl-1-methyl-",Koerner,charochkina,A5793,-,-,-,9.8,Log unit,25,?C,N1(CCCC1CC)C,3
OC(CN1CCCC1)CN1CCCC1,-,R945779,M1107246,-,-,"Pyrrolidine,1(2-hydroxy-3-pyrrolidine-1-yl)propyl-:",Koerner,charochkina,A5793,-,-,-,9.43,Log unit,25,?C,N1(CCCC1)CC(O)CN1CCCC1,3
OC(CN1CCCC1)C[NH+]1CCCC1,-,R945780,M1107246,-,-,"Pyrrolidine,1(2-hydroxy-3-pyrrolidine-1-yl)propyl-:",Koerner,charochkina,A5793,-,-,-,8.05,Log unit,25,?C,N1(CCCC1)CC(O)C[NH+]1CCCC1,3
COC1=CC=C(C=C1)C1CCCN1C,-,R945781,M269790,-,-,"Pyrrolidine,2-(p-methoxyphenyl)-1-methyl-",Koerner,charochkina,A5793,-,-,-,8.9,Log unit,25,?C,N1(C(c2ccc(cc2)OC)CCC1)C,5
CN1CCCC1,-,R945782,M19070,-,-,"Pyrrolidine, 1-methyl-",Koerner,charochkina,A5793,-,-,-,10.39,Log unit,25,?C,N1(CCCC1)C,3
CN1CCCC1C1=CC=CC=C1,-,R945783,M495833,-,-,"Pyrrolidine, 1-methyl-2-phenyl-",Koerner,charochkina,A5793,-,-,-,8.8,Log unit,25,?C,N1(C(c2ccccc2)CCC1)C,5
CCCC1CCCN1C,-,R945784,M1107247,-,-,"Pyrrolidine, 1-methyl-2-n-propyl-",Koerner,charochkina,A5793,-,-,-,9.8,Log unit,25,?C,N1(CCCC1CCC)C,3
CN1CCCC1C1=CN=CC=C1,-,R945785,M10504,-,-,"Pyrrolidine, 1-methyl-2-(3-pyridy)-:",Koerner,charochkina,A5793,-,-,-,8.04,Log unit,25,?C,N1(C(c2cnccc2)CCC1)C,7
C[NH+]1CCCC1C1=CN=CC=C1,-,R945786,M10504,-,-,"Pyrrolidine, 1-methyl-2-(3-pyridy)-:",Koerner,charochkina,A5793,-,-,-,3.4,Log unit,25,?C,n1cccc(c1)C1[NH+](CCC1)C,0
C1CCN(C1)C1=CC=CC=C1,-,R945787,M28979,-,-,"Pyrrolidine, 1-pheny-",Koerner,charochkina,A5793,-,-,-,4.3,Log unit,25,?C,N1(c2ccccc2)CCCC1,4
C1CNC(C1)C1=CC=CC=C1,-,R945788,M24325,-,-,"PYRROLIDINE, 2-PHENYL-",Koerner,charochkina,A5793,-,-,-,9.6,Log unit,25,?C,N1C(c2ccccc2)CCC1,5
C(CN1CCCC1)N1CCCC1,-,R945789,M1107248,-,-,"Pyrrolidine, 1-(2-pyrrolidine-1-yl)ethyl-:",Koerner,charochkina,A5793,-,-,-,9.17,Log unit,25,?C,N1(CCCC1)CCN1CCCC1,3
C(CN1CCCC1)CN1CCCC1,-,R945790,M1107249,-,-,"Pyrrolidine, 1-(3-pyrrolidin-1-yl)propyl-",Koerner,charochkina,A5793,-,-,-,10.04,Log unit,25,?C,N1(CCCC1)CCCN1CCCC1,3
C1CNC(C1)C1=CC=CS1,-,R945791,M1107250,-,-,"Pyrrolidine, 2-(2-thienyl)-:",Koerner,charochkina,A5793,-,-,-,9.35,Log unit,25,?C,N1C(c2sccc2)CCC1,6
CC1=CC=C(C=C1)N1CCCC1,-,R945792,M1107251,-,-,"Pyrrolidine, 1-(p-tolyl)-",Koerner,charochkina,A5793,-,-,-,4.7,Log unit,25,?C,N1(c2ccc(cc2)C)CCCC1,4
CC1=CC=C(C=C1)C1CCCN1,-,R945793,M1107252,-,-,"Pyrroolidine, 2-(p-tolyl)",Koerner,charochkina,A5793,-,-,-,9.95,Log unit,25,?C,N1CCCC1c1ccc(C)cc1,0
CC1CN(C)CC1C,-,R945794,M1107253,-,-,"1,3,4-Trimethyl1-1-pyrrolinium perchlorate:",Koerner,charochkina,A5793,-,-,-,9.6,Log unit,25,?C,N1(CC(C)C(C1)C)C,1
[NH3+]CCNCC1=CC=CS1,-,R945795,M1107254,-,-,"Thiophene, 2-(2-aminoethylaminomethyl)-:",Koerner,charochkina,A5793,-,-,-,6.3,Log unit,25,?C,N(Cc1sccc1)CC[NH3+],3
NCC1=CC=CS1,-,R945796,M83095,-,-,"Thiophene, 2-aminomethyl-",Koerner,charochkina,A5793,-,-,-,8.92,Log unit,25,?C,NCc1sccc1,6
C1COCCN1,-,R945797,M13655,-,-,Morpholine:,Koerner,charochkina,A5793,-,-,-,8.315001,Log unit,25,?C,N1CCOCC1,3
CC(=O)C(CCN1CCOCC1)(C1=CC=CC=C1)C1=CC=CC=C1,-,R945798,M1107255,-,-,"Morpholine, N-(3-acetyl-3,3-diphenyl)propyl-",Koerner,charochkina,A5793,-,-,-,6.83,Log unit,25,?C,N1(CCC(c2ccccc2)(c2ccccc2)C(=O)C)CCOCC1,16
CC(=O)C(CN1CCOCC1)C1=CC=CC=C1,-,R945799,M1107256,-,-,"Morpholine, N-(2_acetyl-2-phenyl)ethyl-",Koerner,charochkina,A5793,-,-,-,6.23,Log unit,25,?C,N1(CC(c2ccccc2)C(=O)C)CCOCC1,9
C=CCN1CCOCC1,-,R945800,M1107257,-,-,"Morpholine, N-allyl-",Koerner,charochkina,A5793,-,-,-,7.02,Log unit,25,?C,N1(CCOCC1)CC=C,3
[NH3+]CCN1CCOCC1,-,R945801,M26129,-,-,"Morpholine, N-(2-amino)ethyl-",Koerner,charochkina,A5793,-,-,-,4.84,Log unit,25,?C,N1(CCOCC1)CC[NH3+],3
O=C(CC1=CC=CC=C1)C(CN1CCOCC1)C1=CC=CC=C1,-,R945802,M1107258,-,-,"Morpholine, N-(2-benzylcarbonyl-2-phenyl)ethyl",Koerner,charochkina,A5793,-,-,-,6.17,Log unit,25,?C,N1(CC(C(=O)Cc2ccccc2)c2ccccc2)CCOCC1,15
CC(O)C[NH+](CCCN1CCOCC1)CC(C)O,-,R945803,M1107259,-,-,"Mokrpholine, N-[3-(bis-2-hydroxpropyl)aminopropyl]-",Koerner,charochkina,A5793,-,-,-,5.5,Log unit,25,?C,N1(CCOCC1)CCC[NH+](CC(O)C)CC(O)C,3
N#CC(CCN1CCOCC1)(C1=CC=CC=C1)C1=CC=CC=C1,-,R945804,M759551,-,-,"Morpholine, N-(3-cyano-3,3-diphenyl)propyl-",Koerner,charochkina,A5793,-,-,-,6.04,Log unit,25,?C,N1(CCC(c2ccccc2)(c2ccccc2)C#N)CCOCC1,15
N#CCN1CCOCC1,-,R945805,M30644,-,-,"Morpholine, N-cyanomethyl-",Koerner,charochkina,A5793,-,-,-,2,Log unit,25,?C,N1(CCOCC1)CC#N,3
CC(CC(C#N)(C1=CC=CC=C1)C1=CC=CC=C1)N1CCOCC1,-,R945806,M1107260,-,-,"Morpholine, N-(3-cyano-1-methyl-3.3-diphenyl)propyl-",Koerner,charochkina,A5793,-,-,-,6.05,Log unit,25,?C,N1(C(CC(c2ccccc2)(c2ccccc2)C#N)C)CCOCC1,15
O=C(CCN1CCOCC1)C(C1=CC=CC=C1)C1=CC=CC=C1,-,R945807,M1107261,-,-,"Morpholine, N-(2-diphenylmethlcarbonyl)ethyl-",Koerner,charochkina,A5793,-,-,-,6.39,Log unit,25,?C,N1(CCC(=O)C(c2ccccc2)c2ccccc2)CCOCC1,15
C(CN1CCOCC1)C(C1=CC=CC=C1)C1=CC=CC=C1,-,R945808,M1107262,-,-,"Morpholine, N-(3,3-diphenyl)propyl-",Koerner,charochkina,A5793,-,-,-,7.2,Log unit,25,?C,N1(CCC(c2ccccc2)c2ccccc2)CCOCC1,13
CCCC(=O)C(CCN1CCOCC1)(C1=CC=CC=C1)C1=CC=CC=C1,-,R945809,M1107263,-,-,"Morpholine, N-(3,3-diphenyl-3-propylcarbonyl)propyl-",Koerner,charochkina,A5793,-,-,-,7.17,Log unit,25,?C,N1(CCC(c2ccccc2)(c2ccccc2)C(=O)CCC)CCOCC1,18
CCN1CCOCC1,-,R945810,M18335,-,-,"Morpholine, N-ethyl-",Koerner,charochkina,A5793,-,-,-,7.67,Log unit,25,?C,N1(CCOCC1)CC,3
CCC(=O)C(CCN1CCOCC1)(C1=CC=CC=C1)C1=CC=CC=C1,-,R945811,M41844,-,-,"Morpholine, N-(3-ethylcarbonyl-3,3-diphenyl)propyl-",Koerner,charochkina,A5793,-,-,-,6.95,Log unit,25,?C,N1(CCOCC1)CCC(C(=O)CC)(c1ccccc1)c1ccccc1,3
CCC(=O)C(CC(C)N1CCOCC1)(C1=CC=CC=C1)C1=CC=CC=C1,-,R945812,M6345,-,-,"Morpholine, N-(3-ethylcarbonyl-1-methyl-3,3-diphenyl)propyl-",Koerner,charochkina,A5793,-,-,-,6.68,Log unit,25,?C,N1(C(CC(c2ccccc2)(c2ccccc2)C(=O)CC)C)CCOCC1,17
CCC(=O)C(C(C)CN1CCOCC1)(C1=CC=CC=C1)C1=CC=CC=C1,-,R945813,M1107264,-,-,"Morpholine, N-(3-ethylcarbonyl-2-methyl-3,3-dipheyl)propyl-",Koerner,charochkina,A5793,-,-,-,7.12,Log unit,25,?C,N1(CC(C(c2ccccc2)(c2ccccc2)C(=O)CC)C)CCOCC1,17
OC(CN1CCOCC1)CN1CCOCC1,-,R945814,M78359,-,-,"Morpholine, N-(2-hydroxy-3-morpholin)propyl-:",Koerner,charochkina,A5793,-,-,-,6.68,Log unit,25,?C,N1(CCOCC1)CC(O)CN1CCOCC1,3
OC(CN1CCOCC1)C[NH+]1CCOCC1,-,R945815,M78359,-,-,"Morpholine, N-(2-hydroxy-3-morpholin)propyl-:",Koerner,charochkina,A5793,-,-,-,5.3,Log unit,25,?C,N1(CCOCC1)CC(O)C[NH+]1CCOCC1,3
CN1CCOCC1,-,R945816,M10411,-,-,"Morpholine, N-methyl-",Koerner,charochkina,A5793,-,-,-,7.38,Log unit,25,?C,N1(CCOCC1)C,3
CC(CC(C1=CC=CC=C1)C1=CC=CC=C1)N1CCOCC1,-,R945817,M1006792,-,-,"Morpholine, N-(1-methyl-3,3-diphenyl)propyl-",Koerner,charochkina,A5793,-,-,-,6.85,Log unit,25,?C,N1(C(CC(c2ccccc2)c2ccccc2)C)CCOCC1,13
C(CN1CCOCC1)N1CCOCC1,-,R945818,M25660,-,-,"Morphoilne, N-(2-morpholino)ethyl-",Koerner,charochkina,A5793,-,-,-,6.35,Log unit,25,?C,N1(CCOCC1)CCN1CCOCC1,3
C(CN1CCOCC1)CN1CCOCC1,-,R945819,M88117,-,-,"Morpholine, N-(3-morpholino)propyal-",Koerner,charochkina,A5793,-,-,-,7,Log unit,25,?C,N1(CCOCC1)CCCN1CCOCC1,3
C1CNCCN1,-,R945820,M3320,-,-,Piperazine:,Koerner,charochkina,A5793,-,-,-,9.5,Log unit,25,?C,N1CCNCC1,0
C1C[NH2+]CCN1,-,R945821,M3320,-,-,piperazine,Koerner,charochkina,A5793,-,-,-,5.86,Log unit,25,?C,N1CC[NH2+]CC1,3
CC1CNC(C)CN1,-,R945822,M7563,-,-,"Piperazine, trans-2,5-dimethyl-",Koerner,charochkina,A5793,-,-,-,9.66,Log unit,25,?C,N1CC(NCC1C)C,0
CC1C[NH2+]C(C)CN1,-,R945823,M7563,-,-,"Piperazine, trans-2,5-dimethyl-",Koerner,charochkina,A5793,-,-,-,5.2,Log unit,25,?C,N1C(C[NH2+]C(C1)C)C,3
CN1CCN(CC1)C(C1=CC=C(C)C=C1)C1=CC=C(C)C=C1,-,R945824,M1107265,-,-,"Piperazine, 1-methyl-4-(4_methylbenzhydry)-",Koerner,charochkina,A5793,-,-,-,8.21,Log unit,25,?C,N1(C(c2ccc(cc2)C)c2ccc(C)cc2)CCN(C)CC1,8
[NH3+]CCC1=CNC2=C1C=C(O)C=C2,-,R945825,M9542,-,-,3-(2-aminoethyl)-5-hydroxyindole,Koerner,charochkina,A5793,-,-,-,10,Log unit,25,?C,Oc1ccc2[nH]cc(c2c1)CC[NH3+],3
NC1=CC=CC2=C1C(=O)C1=CC=CC=C1C2=O,-,R945826,M17675,-,-,1-AMINOANTHRAQUINONE,Koerner,charochkina,A5793,-,-,-,0.44,Log unit,25,?C,Nc1cccc2C(=O)c3ccccc3C(=O)c12,1
CNC1=CC=CC2=C1C(=O)C1=CC=CC=C1C2=O,-,R945827,M17671,-,-,DISPERSE RED 9,Koerner,charochkina,A5793,-,-,-,0.56,Log unit,25,?C,N(c1cccc2C(=O)c3ccccc3C(=O)c12)C,1
NC1=CC(=CC2=CC(=CC(O)=C12)S([O-])(=O)=O)S([O-])(=O)=O,-,R945628,M17938,-,-,"1-amino-8-hydroxy-3,6-disulphonaphthalene",Koerner,charochkina,A5793,-,-,-,8.827,Log unit,25,?C,Oc1cc(S(=O)(=O)[O-])cc2c1c(cc(c2)S(=O)(=O)[O-])N,7
NC1=C2C=CC=CC2=CC(I)=C1,-,R945629,M1107167,-,-,1-amino-3-iodo-naphthalene,Koerner,charochkina,A5793,-,-,-,2.82,Log unit,25,?C,Nc1cc(I)cc2c1cccc2,4
NC1=CC2=C(C=CC=C2)C(I)=C1,-,R945630,M1107168,-,-,2-amino-4-iodo-naphthalene,Koerner,charochkina,A5793,-,-,-,3.41,Log unit,25,?C,Nc1cc(I)c2ccccc2c1,5
COC1=CC2=CC=CC=C2C(N)=C1,-,R945631,M1107169,-,-,1-amino-3-methoxynaphthalene,Koerner,charochkina,A5793,-,-,-,3.26,Log unit,25,?C,Nc1c2ccccc2cc(c1)OC,6
COC1=CC2=CC=CC(N)=C2C=C1,-,R945632,M1107170,-,-,1-amino-6-methoxynaphthalene,Koerner,charochkina,A5793,-,-,-,3.9,Log unit,25,?C,Nc1cccc2c1ccc(c2)OC,3
COC1=CC2=C(N)C=CC=C2C=C1,-,R945633,M1107171,-,-,1-amino-7-methoxynaphthalene,Koerner,charochkina,A5793,-,-,-,4.07,Log unit,25,?C,Nc1cccc2c1cc(OC)cc2,3
COC1=CC(N)=CC2=CC=CC=C12,-,R945634,M1107172,-,-,2-amino-4-methoxy-naphthalene,Koerner,charochkina,A5793,-,-,-,4.05,Log unit,25,?C,Nc1cc2ccccc2c(c1)OC,12
COC1=CC2=C(C=C1)C=C(N)C=C2,-,R945635,M1107173,-,-,2-amino-6-methoxy-naphthalene,Koerner,charochkina,A5793,-,-,-,4.64,Log unit,25,?C,Nc1ccc2cc(ccc2c1)OC,12
COC1=CC2=C(C=CC(N)=C2)C=C1,-,R945636,M1107174,-,-,2-amino-7-methoxy-naphthalene,Koerner,charochkina,A5793,-,-,-,4.19,Log unit,25,?C,Nc1ccc2ccc(OC)cc2c1,12
COC(=O)C1=CC2=CC=CC=C2C(N)=C1,-,R945637,M1107175,-,-,1-amino-3-methoxycarbonylnaphthalene,Koerner,charochkina,A5793,-,-,-,3.12,Log unit,25,?C,Nc1c2ccccc2cc(C(=O)OC)c1,14
COC(=O)C1=CC(N)=CC2=CC=CC=C12,-,R945638,M1107176,-,-,2-amino-4-methoxycarbonylnaphthalene,Koerner,charochkina,A5793,-,-,-,3.38,Log unit,25,?C,Nc1cc2ccccc2c(c1)C(=O)OC,14
CC1=CC2=CC=CC=C2C(N)=C1,-,R945639,M1107177,-,-,1-amino-3-methylnaphthalene,Koerner,charochkina,A5793,-,-,-,3.96,Log unit,25,?C,Nc1c2ccccc2cc(c1)C,6
CC1=CC=C(N)C2=CC=CC=C12,-,R945640,M1107178,-,-,1-amino-4-methylnaphthalene,Koerner,charochkina,A5793,-,-,-,4.37,Log unit,25,?C,Nc1c2ccccc2c(cc1)C,11
CC1=CC(N)=CC2=CC=CC=C12,-,R945641,M1107179,-,-,2-amino-4-methylnaphthalene,Koerner,charochkina,A5793,-,-,-,4.31,Log unit,25,?C,Nc1cc2ccccc2c(c1)C,11
CS(=O)(=O)C1=CC(N)=C2C=CC=CC2=C1,-,R945642,M1107180,-,-,1-amino-3-methylsulphonylnaphthalene,Koerner,charochkina,A5793,-,-,-,2.04,Log unit,25,?C,Nc1cc(S(=O)(=O)C)cc2c1cccc2,7
CS(=O)(=O)C1=CC=C(N)C2=C1C=CC=C2,-,R945643,M1107181,-,-,1-amino-4-methylsulphonylnaphthalene,Koerner,charochkina,A5793,-,-,-,0.8,Log unit,25,?C,Nc1ccc(S(=O)(=O)C)c2ccccc12,8
CS(=O)(=O)C1=CC=CC2=C1C=CC=C2N,-,R945644,M1107182,-,-,1-amino-5-methylsulphonylnaphthalene,Koerner,charochkina,A5793,-,-,-,2.77,Log unit,25,?C,Nc1c2cccc(c2ccc1)S(=O)(=O)C,4
CS(=O)(=O)C1=CC=C2C(N)=CC=CC2=C1,-,R945645,M1107183,-,-,1-amino-6-methylsulphonylnaphthalene,Koerner,charochkina,A5793,-,-,-,2.97,Log unit,25,?C,Nc1c2ccc(S(=O)(=O)C)cc2ccc1,10
CS(=O)(=O)C1=CC=C2C=CC=C(N)C2=C1,-,R945646,M1107184,-,-,1-amino-7-methylsulphonylnaphthalene,Koerner,charochkina,A5793,-,-,-,2.71,Log unit,25,?C,Nc1c2cc(S(=O)(=O)C)ccc2ccc1,14
CS(=O)(=O)C1=CC=CC2=C1C(N)=CC=C2,-,R945647,M1107185,-,-,1-amino-8-methylsulphonylnaphthalene,Koerner,charochkina,A5793,-,-,-,2.06,Log unit,25,?C,Nc1c2c(S(=O)(=O)C)cccc2ccc1,12
CS(=O)(=O)C1=C(N)C=CC2=C1C=CC=C2,-,R945648,M1107186,-,-,2-amino-1-methylsulphonylnaphthalene,Koerner,charochkina,A5793,-,-,-,-0.55,Log unit,25,?C,Nc1c(S(=O)(=O)C)c2ccccc2cc1,8
CS(=O)(=O)C1=CC(N)=CC2=C1C=CC=C2,-,R945649,M1107187,-,-,2-amino-4-methylsulphonylnaphthalene,Koerner,charochkina,A5793,-,-,-,2.61,Log unit,25,?C,Nc1cc(S(=O)(=O)C)c2ccccc2c1,8
CS(=O)(=O)C1=CC=CC2=C1C=CC(N)=C2,-,R945650,M1107188,-,-,2-amino-5-methylsulphonylnaphthalene,Koerner,charochkina,A5793,-,-,-,3.07,Log unit,25,?C,Nc1ccc2c(S(=O)(=O)C)cccc2c1,12
CS(=O)(=O)C1=CC=C2C=C(N)C=CC2=C1,-,R945651,M1107189,-,-,2-amino-6-methylsulphonylnaphthalene,Koerner,charochkina,A5793,-,-,-,2.77,Log unit,25,?C,Nc1cc2ccc(S(=O)(=O)C)cc2cc1,10
CS(=O)(=O)C1=CC=C2C=CC(N)=CC2=C1,-,R945652,M1107190,-,-,2-amino-7-methylsulphonylnaphthalene,Koerner,charochkina,A5793,-,-,-,3.12,Log unit,25,?C,Nc1cc2cc(S(=O)(=O)C)ccc2cc1,14
CS(=O)(=O)C1=CC=CC2=C1C=C(N)C=C2,-,R945653,M1107191,-,-,2-amino-8-methylsulphonylnaphthalene,Koerner,charochkina,A5793,-,-,-,2.7,Log unit,25,?C,Nc1cc2c(S(=O)(=O)C)cccc2cc1,12
NC1=C(C=CC2=CC=CC=C12)N(=O)=O,-,R945654,M1107192,-,-,1-amino-2-nitronaphthalene,Koerner,charochkina,A5793,-,-,-,-1.74,Log unit,25,?C,Nc1c2ccccc2ccc1N(=O)=O,5
NC1=CC(=CC2=CC=CC=C12)N(=O)=O,-,R945655,M1107193,-,-,1-amino-3-nitro-naphthalene,Koerner,charochkina,A5793,-,-,-,2.07,Log unit,25,?C,Nc1c2ccccc2cc(c1)N(=O)=O,6
NC1=CC=C(C2=CC=CC=C12)N(=O)=O,-,R945656,M67732,-,-,1-amino-4-nitro-naphthalene,Koerner,charochkina,A5793,-,-,-,0.54,Log unit,25,?C,N(=O)(=O)c1c2ccccc2c(cc1)N,6
NC1=C2C=CC=C(C2=CC=C1)N(=O)=O,-,R945657,M774712,-,-,1-amino-5-nitronaphthalene,Koerner,charochkina,A5793,-,-,-,2.73,Log unit,25,?C,Nc1cccc2c1cccc2N(=O)=O,3
NC1=C2C=CC(=CC2=CC=C1)N(=O)=O,-,R945658,M1107194,-,-,1-amino-6-nitronaphthalene,Koerner,charochkina,A5793,-,-,-,2.89,Log unit,25,?C,Nc1cccc2c1ccc(c2)N(=O)=O,3
NC1=C2C=C(C=CC2=CC=C1)N(=O)=O,-,R945659,M1107195,-,-,1-amino-7-nitronaphthalene,Koerner,charochkina,A5793,-,-,-,2.55,Log unit,25,?C,Nc1cccc2c1cc(N(=O)=O)cc2,3
NC1=C2C(C=CC=C2N(=O)=O)=CC=C1,-,R945660,M1107196,-,-,1-amino-8-nitronaphthalene,Koerner,charochkina,A5793,-,-,-,2.79,Log unit,25,?C,Nc1cccc2c1c(ccc2)N(=O)=O,3
NC1=C(C2=CC=CC=C2C=C1)N(=O)=O,-,R945661,M67144,-,-,2-Amino-1-nitronaphthalene,Koerner,charochkina,A5793,-,-,-,-0.85,Log unit,25,?C,Nc1c(c2ccccc2cc1)N(=O)=O,6
NC1=CC2=CC=CC=C2C(=C1)N(=O)=O,-,R945662,M1107197,-,-,2-amino-4-nitro-naphthalene,Koerner,charochkina,A5793,-,-,-,2.43,Log unit,25,?C,N(=O)(=O)c1c2ccccc2cc(c1)N,6
NC1=CC2=C(C=C1)C(=CC=C2)N(=O)=O,-,R945663,M1107198,-,-,2-amino-5-nitro-naphthalene,Koerner,charochkina,A5793,-,-,-,3.01,Log unit,25,?C,N(=O)(=O)c1c2ccc(cc2ccc1)N,8
NC1=CC2=C(C=C1)C=C(C=C2)N(=O)=O,-,R945664,M147724,-,-,2-amino-6-nitro-naphthalene,Koerner,charochkina,A5793,-,-,-,2.62,Log unit,25,?C,N(=O)(=O)c1cc2ccc(cc2cc1)N,6
NC1=CC2=C(C=C1)C=CC(=C2)N(=O)=O,-,R945665,M1107199,-,-,2-amino-7-nitro-naphthalene,Koerner,charochkina,A5793,-,-,-,3.1,Log unit,25,?C,N(=O)(=O)c1ccc2ccc(cc2c1)N,6
NC1=CC2=C(C=CC=C2N(=O)=O)C=C1,-,R945666,M1107200,-,-,2-amino-8-nitronaphthalene,Koerner,charochkina,A5793,-,-,-,2.73,Log unit,25,?C,N(=O)(=O)c1c2c(ccc(c2)N)ccc1,8