Smiles,CASRN,Record ID,Molecule ID,External ID,N,Name,Introducer,Modifer,Article ID,PUBMED ID,PAGE,TABLE,pKa,pKa Unit,Temperature,Temperature Unit,Ionizable center smiles,IC group
[NH2+]CCCCC([NH2+])C(O)=O,-,R1203836,M1157713,-,-,lysine,Koerner,charochkina,A5793,-,-,-,2.17,Log unit,25,?C,OC(=O)C([NH2+])CCCC[NH2+],co2h
NC(CCCC[NH2+])C([O-])=O,-,R1203837,M1157714,-,-,lysine,Koerner,charochkina,A5793,-,-,-,9,Log unit,25,?C,NC(C(=O)[O-])CCCC[NH2+],2
NCCCCC(N)C([O-])=O,-,R1203838,M17151,-,-,lysine,Koerner,charochkina,A5793,-,-,-,10.53,Log unit,25,?C,NCCCCC(C(=O)[O-])N,4
[NH2+]C(CC(O)=O)C(O)=O,-,R1203839,M1157715,-,-,ASPARTIC ACID,Koerner,charochkina,A5793,-,-,-,2.01,Log unit,25,?C,OC(=O)C(CC(=O)O)[NH2+],2
[NH2+]C(CC(O)=O)C([O-])=O,-,R1203840,M1157715,-,-,ASPARTIC ACID,Koerner,charochkina,A5793,-,-,-,3.9,Log unit,25,?C,[O-]C(=O)C(CC(=O)O)[NH2+],co2h
[NH2+]C(CC(O)=O)C([O-])=O,-,R1203842,M1157715,-,-,ASPARTIC ACID,Koerner,charochkina,A5793,-,-,-,3.8,Log unit,25,?C,[O-]C(=O)C(CC(=O)O)[NH2+],co2h
NC(CC(N)=O)C([O-])=O,-,R1203844,M1855,-,-,asparagine,Koerner,charochkina,A5793,-,-,-,8.82,Log unit,25,?C,NC(CC(=O)N)C(=O)[O-],4
[NH2+]C(CCC(O)=O)C(O)=O,-,R1203845,M1157716,-,-,Glutamic acid,Koerner,charochkina,A5793,-,-,-,2.155,Log unit,25,?C,OC(=O)C(CCC(=O)O)[NH2+],2
CCOC(=O)C([NH2+])CCC(O)=O,-,R1203846,M1157717,-,-,glutamic acid-alpha-ethyl half ester,Koerner,charochkina,A5793,-,-,-,3.846,Log unit,25,?C,OC(=O)CCC([NH2+])C(=O)OCC,co2h
CCOC(=O)CCC([NH2+])C(O)=O,-,R1203847,M1157718,-,-,glutamic acid-gamma-ethyl half ester,Koerner,charochkina,A5793,-,-,-,2.148,Log unit,25,?C,OC(=O)C([NH2+])CCC(=O)OCC,co2h
C[N+](CC(O)=O)CC(O)=O,-,R1203850,M1157719,-,-,methylaminediacetic acid,Koerner,charochkina,A5793,-,-,-,2.15,Log unit,25,?C,OC(=O)C[N+](C)CC(=O)O,1
OC(=O)C[N+](CC(O)=O)C1=CC=CC=C1,-,R1203852,M1157720,-,-,anilinediacetic acid,Koerner,charochkina,A5793,-,-,-,2.7,Log unit,25,?C,OC(=O)C[N+](c1ccccc1)CC(=O)O,co2h
[O-]C(=O)CN(CC([O-])=O)C1=CC=CC=C1,-,R1203853,M119249,-,-,anilinediacetic acid,Koerner,charochkina,A5793,-,-,-,5,Log unit,25,?C,[O-]C(=O)CN(c1ccccc1)CC(=O)[O-],nr2
OC(=O)C[N+](CC(O)=O)CC(O)=O,-,R1203854,M1157721,-,-,nitriloacetic acid,Koerner,charochkina,A5793,-,-,-,1.3,Log unit,25,?C,OC(=O)C[N+](CC(=O)O)CC(=O)O,co2h
OC(=O)C[N+](CC(O)=O)CC([O-])=O,-,R1203855,M1157721,-,-,nitriloacetic acid,Koerner,charochkina,A5793,-,-,-,1.7,Log unit,25,?C,[O-]C(=O)C[N+](CC(=O)O)CC(=O)O,co2h
OC(=O)C[N+](CC([O-])=O)CC([O-])=O,-,R1203856,M1157721,-,-,nitriloacetic acid,Koerner,charochkina,A5793,-,-,-,2.4,Log unit,25,?C,OC(=O)C[N+](CC(=O)[O-])CC(=O)[O-],co2h
C[N+](C)CCN(CC([O-])=O)CC([O-])=O,-,R1203863,M1157722,-,-,ethylenediamine-N-dimethyl-N'-diacetic acid,Koerner,charochkina,A5793,-,-,-,5.9,Log unit,25,?C,N(CC(=O)[O-])(CC(=O)[O-])CC[N+](C)C,nr2
CN(C)CCN(CC([O-])=O)CC([O-])=O,-,R1203864,M1034163,-,-,ethylenediamine-N-dimethyl-N'-diacetic acid,Koerner,charochkina,A5793,-,-,-,10,Log unit,25,?C,N(CCN(CC(=O)[O-])CC(=O)[O-])(C)C,2
OC(=O)CC[N+](CC[N+](CCC(O)=O)CC([O-])=O)CC([O-])=O,-,R1203865,M1157723,-,-,"ethylenediamine-N,N'-dipropionic acid-N,N'-diacetic acid",Koerner,charochkina,A5793,-,-,-,3.3,Log unit,25,?C,OC(=O)CC[N+](CC(=O)[O-])CC[N+](CC(=O)[O-])CCC(=O)O,co2h
OC(=O)CC[N+](CC[N+](CCC([O-])=O)CC([O-])=O)CC([O-])=O,-,R1203866,M1157723,-,-,"ethylenediamine-N,N'-dipropionic acid-N,N'-diacetic acid",Koerner,charochkina,A5793,-,-,-,3.5,Log unit,25,?C,[O-]C(=O)CC[N+](CC(=O)[O-])CC[N+](CC(=O)[O-])CCC(=O)O,co2h
[O-]C(=O)CCN(CC[N+](CCC([O-])=O)CC([O-])=O)CC([O-])=O,-,R1203867,M1157724,-,-,"ethylenediamine-N,N'-dipropionic acid-N,N'-diacetic acid",Koerner,charochkina,A5793,-,-,-,6.3,Log unit,25,?C,N(CC(=O)[O-])(CCC(=O)[O-])CC[N+](CC(=O)[O-])CCC(=O)[O-],nr2
OC(=O)CC(=O)C(O)=O,-,R1203875,M20015,-,-,oxaloacetic acid,Koerner,charochkina,A5793,-,-,-,2.55,Log unit,25,?C,OC(=O)C(=O)CC(=O)O,2
[NH2+]C(CS([O-])(=O)=O)C(O)=O,-,R1203877,M1157725,-,-,Cysteic Acid,Koerner,charochkina,A5793,-,-,-,1.89,Log unit,25,?C,OC(=O)C(CS(=O)(=O)[O-])[NH2+],co2h
OC(C(Cl)C(O)=O)C(O)=O,-,R1203906,M1018404,-,-,alpha-hydroxy-alpha'-chlorobutyric acid,Koerner,charochkina,A5793,-,-,-,2.32,Log unit,25,?C,OC(=O)C(C(Cl)C(=O)O)O,co2h
CC(SCC(O)=O)C(O)=O,-,R1203916,M1018409,-,-,alpha-thiopropionic acid-acetic acid,Koerner,charochkina,A5793,-,-,-,3.38,Log unit,25,?C,OC(=O)C(SCC(=O)O)C,co2h
[NH2+]CCSCCCCCCCCCC(O)=O,-,R1203919,M1157726,-,-,10-(aminoethylthio)-n-decanoic acid,Koerner,charochkina,A5793,-,-,-,4,Log unit,25,?C,OC(=O)CCCCCCCCCSCC[NH2+],co2h
[NH2+]C(CCCC(F)(F)F)C(O)=O,-,R1203925,M1157727,-,-,"epsilon,epsilon,epsilon-trifluoro-norleucine",Koerner,charochkina,A5793,-,-,-,2.164,Log unit,25,?C,OC(=O)C(CCCC(F)(F)F)[NH2+],co2h
CC(CC([NH2+])C(O)=O)C(F)(F)F,-,R1203927,M1157728,-,-,"delta,delta,delta-trifluoro-leucine",Koerner,charochkina,A5793,-,-,-,2.045,Log unit,25,?C,OC(=O)C(CC(C(F)(F)F)C)[NH2+],co2h
[NH2+]C(CCC(F)(F)F)C(O)=O,-,R1203929,M1157729,-,-,"delta,delta,delta-trifluoro-norvaline",Koerner,charochkina,A5793,-,-,-,2.042,Log unit,25,?C,OC(=O)C(CCC(F)(F)F)[NH2+],co2h
CC(C([NH2+])C(O)=O)C(F)(F)F,-,R1203931,M1157730,-,-,"gamma,gamma,gamma-trifluoro-valine",Koerner,charochkina,A5793,-,-,-,1.537,Log unit,25,?C,OC(=O)C(C(C(F)(F)F)C)[NH2+],co2h
[NH2+]C(CC(F)(F)F)C(O)=O,-,R1203933,M1157731,-,-,"gamma,gamma,gamma-trifluoro-alpha-amino-n-butyric acid",Koerner,charochkina,A5793,-,-,-,1.6,Log unit,25,?C,OC(=O)C(CC(F)(F)F)[NH2+],co2h
[NH2+]C(C(O)C(F)(F)F)C(O)=O,-,R1203935,M1157732,-,-,"gamma,gamma,gamma-trifluoro-threonine",Koerner,charochkina,A5793,-,-,-,1.554,Log unit,25,?C,OC(=O)C(C(C(F)(F)F)O)[NH2+],co2h
[NH2+]C(CO)C(O)=O,-,R1203938,M1157733,-,-,SERINE,Koerner,charochkina,A5793,-,-,-,2.21,Log unit,25,?C,OC(=O)C([NH2+])CO,co2h
[NH2+]C(C(O)CC(O)=O)C(O)=O,-,R1203942,M1157734,-,-,beta-hydroxy-glutamic acid,Koerner,charochkina,A5793,-,-,-,2.32,Log unit,25,?C,OC(=O)C(C(CC(=O)O)O)[NH2+],2
[NH2+]C(C(O)CC(O)=O)C([O-])=O,-,R1203943,M1157734,-,-,beta-hydroxy-glutamic acid,Koerner,charochkina,A5793,-,-,-,4.2,Log unit,25,?C,OC(=O)CC(O)C([NH2+])C(=O)[O-],co2h
NC(=[NH2+])NOCCC([NH2+])C(O)=O,-,R1203945,M1157735,-,-,Canavanine,Koerner,charochkina,A5793,-,-,-,2.5,Log unit,25,?C,OC(=O)C([NH2+])CCONC(=[NH2+])N,co2h
[NH2+]OCCC([NH2+])C(O)=O,-,R1203946,M1157736,-,-,canaline,Koerner,charochkina,A5793,-,-,-,2.4,Log unit,25,?C,OC(=O)C([NH2+])CCO[NH2+],co2h
NOCCC([NH2+])C([O-])=O,-,R1203947,M1157737,-,-,canaline,Koerner,charochkina,A5793,-,-,-,3.7,Log unit,25,?C,[O-]C(=O)C([NH2+])CCON,nr2
NOCCC(N)C([O-])=O,-,R1203948,M1034171,-,-,canaline,Koerner,charochkina,A5793,-,-,-,9.2,Log unit,25,?C,NC(C(=O)[O-])CCON,3
CCSCC([NH2+])C(O)=O,-,R1203949,M1157738,-,-,s-ethyl-cysteine,Koerner,charochkina,A5793,-,-,-,2.03,Log unit,25,?C,OC(=O)C(CSCC)[NH2+],co2h
OC(=O)C1=CC(C(O)=O)=C(C=C1)C(O)=O,-,R1204043,M21275,-,-,"Benzene-1,2,4-tricarboxylic acid",Koerner,charochkina,A5793,-,-,-,2.82,Log unit,25,?C,OC(=O)c1ccc(cc1C(=O)O)C(=O)O,co2h
OC(=O)C1=CC(C([O-])=O)=C(C=C1)C(O)=O,-,R1204044,M21275,-,-,"Benzene-1,2,4-tricarboxylic acid",Koerner,charochkina,A5793,-,-,-,3.84,Log unit,25,?C,[O-]C(=O)c1c(ccc(c1)C(=O)O)C(=O)O,2
OC1C(Cl)CCCC1[N+]([O-])=O,603-86-1,R1150551,M740604,-,-,NSC28581 2-chloro-6-(hydroxy(oxido)amino)phenol,Koerner,Koerner,A5912,-,-,-,5.48,Log unit,,-,OC1C([N+](=O)[O-])CCCC1Cl,phenol
CC1CC(C(O)C(C1)[N+]([O-])=O)[N+]([O-])=O,609-93-8,R1150552,M740607,-,-,"NSC33870 2,6-bis(hydroxy(oxido)amino)-4-methylphenol",Koerner,Koerner,A5912,-,-,-,4.23,Log unit,,-,OC1C([N+](=O)[O-])CC(CC1[N+](=O)[O-])C,phenol
OC1CCCCC1,108-95-2,R1150553,M3997,-,-,NSC36808 phenol,Koerner,Koerner,A5912,-,-,-,9.99,Log unit,,-,OC1CCCCC1,phenol
OC1C(CC(CC1[N+]([O-])=O)[N+]([O-])=O)[N+]([O-])=O,88-89-1,R1150554,M740567,-,-,"NSC36947 2,4,6-tris(hydroxy(oxido)amino)phenol",Koerner,Koerner,A5912,-,-,-,0.38,Log unit,,-,OC1C([N+](=O)[O-])CC(CC1[N+](=O)[O-])[N+](=O)[O-],phenol
CC1CC(C)C(O)CC1C,496-78-6,R1150555,M740596,-,-,"NSC38776 2,4,5-trimethylphenol",Koerner,Koerner,A5912,-,-,-,10.6,Log unit,,-,OC1CC(C(C)CC1C)C,phenol
CC1CCC(O)CC1[N+]([O-])=O,2042-14-0,R1150556,M740536,-,-,NSC41205 3-(hydroxy(oxido)amino)-4-methylphenol,Koerner,Koerner,A5912,-,-,-,8.62,Log unit,,-,OC1CCC(C)C([N+](=O)[O-])C1,phenol
CC1CCC(O)C(Cl)C1,6640-27-3,R1150557,M1018727,-,-,NSC48848 2-chloro-4-methylphenol,Koerner,Koerner,A5912,-,-,-,8.74,Log unit,,-,OC1C(Cl)CC(CC1)C,phenol
OC1CCCCC1C#N,611-20-1,R1150558,M740608,-,-,NSC53558 2-hydroxybenzonitrile,Koerner,Koerner,A5912,-,-,-,6.86,Log unit,,-,OC1C(C#N)CCCC1,phenol
OC1CCCC(Cl)C1,108-43-0,R1150559,M740506,-,-,NSC59700 3-chlorophenol,Koerner,Koerner,A5912,-,-,-,9.12,Log unit,,-,OC1CC(Cl)CCC1,phenol
OC1CCC(C(C1)C(F)(F)F)[N+]([O-])=O,88-30-2,R1150560,M740497,-,-,NSC59758 4-(hydroxy(oxido)amino)-3-(trifluoromethyl)phenol,Koerner,Koerner,A5912,-,-,-,6.07,Log unit,,-,OC1CCC(C(C(F)(F)F)C1)[N+](=O)[O-],phenol
OC1CCCC(C1)C#N,873-62-1,R1150561,M740533,-,-,NSC60108 3-hydroxybenzonitrile,Koerner,Koerner,A5912,-,-,-,8.61,Log unit,,-,OC1CC(C#N)CCC1,phenol
CCCCC1CCCCC1O,9/4/80,R1150562,M1018786,-,-,NSC60291 2-butylphenol,Koerner,Koerner,A5912,-,-,-,10.6,Log unit,,-,OC1C(CCCC)CCCC1,phenol
OC1CCCC(Cl)C1Cl,576-24-9,R1150563,M740602,-,-,"NSC60646 2,3-dichlorophenol",Koerner,Koerner,A5912,-,-,-,7.7,Log unit,,-,OC1CCCC(C1Cl)Cl,phenol
OC1C(Cl)CCCC1Cl,87-65-0,R1150564,M740565,-,-,"NSC60647 2,6-dichlorophenol",Koerner,Koerner,A5912,-,-,-,6.79,Log unit,,-,OC1C(Cl)CCCC1Cl,phenol
OC1CCC(Cl)C(Cl)C1,95-77-2,R1150565,M740500,-,-,"NSC60648 3,4-dichlorophenol",Koerner,Koerner,A5912,-,-,-,8.63,Log unit,,-,OC1CCC(C(Cl)C1)Cl,phenol
OC1CC(Cl)CC(Cl)C1,591-35-5,R1150566,M740520,-,-,"NSC60649 3,5-dichlorophenol",Koerner,Koerner,A5912,-,-,-,8.18,Log unit,,-,OC1CC(CC(Cl)C1)Cl,phenol
OCC1CCCC(O)C1,620-24-6,R1150567,M1018714,-,-,NSC60735 3-(hydroxymethyl)phenol,Koerner,Koerner,A5912,-,-,-,9.83,Log unit,,-,OC1CC(CO)CCC1,phenol
CC1CCCC(O)C1C,526-75-0,R1150568,M69612,-,-,"NSC62011 2,3-dimethylphenol",Koerner,Koerner,A5912,-,-,-,10.5,Log unit,,-,OC1C(C)C(C)CCC1,phenol
CCC1CCC(O)CC1,123-07-9,R1150569,M74395,-,-,NSC62012 4-ethylphenol,Koerner,Koerner,A5912,-,-,-,10,Log unit,,-,OC1CCC(CC)CC1,phenol
OC1CCCCC1C(=O)NC1CCCCC1Cl,1697-18-3,R1150570,M740541,-,-,NSC63709 N-(2-chlorophenyl)-2-hydroxybenzamide,Koerner,Koerner,A5912,-,-,-,7.31,Log unit,,-,OC1C(C(=O)NC2C(CCCC2)Cl)CCCC1,phenol
CCCC1CCCCC1O,644-35-9,R1150571,M740614,-,-,NSC65646 2-propylphenol,Koerner,Koerner,A5912,-,-,-,10.5,Log unit,,-,OC1C(CCC)CCCC1,phenol
CCCC1CCC(O)CC1,645-56-7,R1150572,M740530,-,-,NSC65647 4-propylphenol,Koerner,Koerner,A5912,-,-,-,10.3,Log unit,,-,OC1CCC(CCC)CC1,phenol
COC1CC(O)CC(C1)OC,500-99-2,R1150573,M139041,-,-,"NSC70955 3,5-dimethoxyphenol",Koerner,Koerner,A5912,-,-,-,9.34,Log unit,,-,OC1CC(CC(OC)C1)OC,phenol
OC1C(Cl)CC(Br)CC1Cl,3217-15-0,R1150574,M740630,-,-,"NSC74624 4-bromo-2,6-dichlorophenol",Koerner,Koerner,A5912,-,-,-,6.21,Log unit,,-,OC1C(Cl)CC(CC1Cl)Br,phenol
CSC1CCC(O)CC1,1073-72-9,R1150575,M1018085,-,-,NSC75840 4-(methylthio)phenol,Koerner,Koerner,A5912,-,-,-,9.53,Log unit,,-,OC1CCC(SC)CC1,phenol
COC1CCC(CC1O)C=O,621-59-0,R1150576,M740613,-,-,NSC82996 3-hydroxy-4-methoxybenzaldehyde,Koerner,Koerner,A5912,-,-,-,8.89,Log unit,,-,OC1CC(C=O)CCC1OC,phenol
CC1CCC(O)C(CO)C1,7/7/83,R1150577,M1017969,-,-,NSC85475 2-(hydroxymethyl)-4-methylphenol,Koerner,Koerner,A5912,-,-,-,10.2,Log unit,,-,OC1C(CO)CC(CC1)C,phenol
OC1CCCC(F)C1,372-20-3,R1150578,M740512,-,-,NSC87078 3-fluorophenol,Koerner,Koerner,A5912,-,-,-,9.21,Log unit,,-,OC1CC(F)CCC1,phenol
OC1CCC(CC1)C(F)(F)F,402-45-9,R1150579,M740513,-,-,NSC88303 4-(trifluoromethyl)phenol,Koerner,Koerner,A5912,-,-,-,8.68,Log unit,,-,OC1CCC(C(F)(F)F)CC1,phenol
OC1CC(CCC1[N+]([O-])=O)[N+]([O-])=O,329-71-5,R1150580,M740593,-,-,"NSC90441 2,5-bis(hydroxy(oxido)amino)phenol",Koerner,Koerner,A5912,-,-,-,5.21,Log unit,,-,OC1CC([N+](=O)[O-])CCC1[N+](=O)[O-],phenol
OC1CCC(CC1[N+]([O-])=O)C1CCCCC1,885-82-5,R1150581,M740619,-,-,"NSC95810 3-(hydroxy(oxido)amino)[1,1'-biphenyl]-4-ol",Koerner,Koerner,A5912,-,-,-,6.73,Log unit,,-,OC1CCC(CC1[N+](=O)[O-])C1CCCCC1,phenol
OC1CCCC(C1[N+]([O-])=O)[N+]([O-])=O,66-56-8,R1150582,M740564,-,-,"NSC156083 2,3-bis(hydroxy(oxido)amino)phenol",Koerner,Koerner,A5912,-,-,-,4.96,Log unit,,-,OC1CCCC(C1[N+](=O)[O-])[N+](=O)[O-],phenol
CCC(C)C1CC(CC(C1O)[N+]([O-])=O)[N+]([O-])=O,88-85-7,R1150583,M1154394,-,-,"NSC202753 2-sec-butyl-4,6-bis(hydroxy(oxido)amino)phenol",Koerner,Koerner,A5912,-,-,-,4.62,Log unit,,-,OC1C(C(C)CC)CC(CC1[N+](=O)[O-])[N+](=O)[O-],phenol
OCC1CCC(O)CC1,623-05-2,R1150584,M1017989,-,-,NSC227926 4-(hydroxymethyl)phenol,Koerner,Koerner,A5912,-,-,-,9.82,Log unit,,-,OC1CCC(CO)CC1,phenol
OC1CC(Cl)C(Cl)C(Cl)C1,609-19-8,R1150585,M740523,-,-,"NSC243667 3,4,5-trichlorophenol",Koerner,Koerner,A5912,-,-,-,7.84,Log unit,,-,OC1CC(C(Cl)C(C1)Cl)Cl,phenol
NCCC1CCC(O)CC1,51-67-2,R1150586,M740495,-,-,NSC249188 4-(2-aminoethyl)phenol,Koerner,Koerner,A5912,-,-,-,9.77,Log unit,,-,OC1CCC(CCN)CC1,phenol
OC1C(Cl)C(Cl)C(Cl)C(Cl)C1Cl,87-86-5,R1150587,M2143,-,-,"NSC263497 2,3,4,5,6-pentachlorophenol",Koerner,Koerner,A5912,-,-,-,4.7,Log unit,,-,OC1C(C(C(Cl)C(C1Cl)Cl)Cl)Cl,phenol
OC1CCC(CC1)C#N,767-00-0,R1150588,M740532,-,-,NSC400524 4-hydroxybenzonitrile,Koerner,Koerner,A5912,-,-,-,7.97,Log unit,,-,OC1CCC(CC1)C#N,phenol
OC1CCC(Cl)CC1C(=O)NC1CCCCC1,4638-48-6,R1150589,M740547,-,-,NSC402600 5-chloro-2-hydroxy-N-phenylbenzamide,Koerner,Koerner,A5912,-,-,-,6.17,Log unit,,-,OC1C(C(=O)NC2CCCCC2)CC(Cl)CC1,phenol
CC1CC(Cl)C(O)C(Cl)C1,12/4/32,R1150590,M740629,-,-,"NSC407750 2,6-dichloro-4-methylphenol",Koerner,Koerner,A5912,-,-,-,7.19,Log unit,,-,OC1C(Cl)CC(C)CC1Cl,phenol
OC1C(Cl)C(Cl)CC(Cl)C1Cl,935-95-5,R1150591,M740621,-,-,"NSC407823 2,3,5,6-tetrachlorophenol",Koerner,Koerner,A5912,-,-,-,5.14,Log unit,,-,OC1C(Cl)C(Cl)CC(C1Cl)Cl,phenol
OC1CCC(Cl)CC1[N+]([O-])=O,89-64-5,R1150592,M740573,-,-,NSC520345 4-chloro-2-(hydroxy(oxido)amino)phenol,Koerner,Koerner,A5912,-,-,-,6.46,Log unit,,-,OC1C([N+](=O)[O-])CC(CC1)Cl,phenol
OC1CCCCC1C(=O)NC1CCC(Br)CC1,2627-77-2,R1150593,M740543,-,-,NSC526279 N-(4-bromophenyl)-2-hydroxybenzamide,Koerner,Koerner,A5912,-,-,-,7.31,Log unit,,-,OC1C(C(=O)NC2CCC(CC2)Br)CCCC1,phenol
CCC(C)(C)C1CCC(O)CC1,80-46-6,R1150594,M75285,-,-,NSC403672 4-tert-pentylphenol,Koerner,Koerner,A5912,-,-,-,10.4,Log unit,,-,OC1CCC(C(CC)(C)C)CC1,phenol
CC(C)C1CC(Cl)C(C)CC1O,89-68-9,R1150595,M740572,-,-,NSC406261 4-chloro-2-isopropyl-5-methylphenol,Koerner,Koerner,A5912,-,-,-,9.98,Log unit,,-,OC1C(C(C)C)CC(Cl)C(C1)C,phenol
COC1CC(CCC1O)C=O,121-33-5,R1150596,M740589,-,-,NSC403658 4-hydroxy-3-methoxybenzaldehyde,Koerner,Koerner,A5912,-,-,-,7.4,Log unit,,-,OC1C(OC)CC(C=O)CC1,phenol
NCCC1=CC=C(O)C=C1,51-67-2,R1166026,M2404,-,-,4-(2-Aminoethyl)phenol,Koerner,Koerner,A5912,-,-,-,9.77,Log unit,,-,Oc1ccc(CCN)cc1,
CC1=C(Cl)C=CC(O)=C1,59-50-7,R1166027,M1312,-,-,3-methyl-4-chlorophenol,Koerner,Koerner,A5912,-,-,-,9.2,Log unit,25,?C,Oc1cc(c(Cl)cc1)C,
CCC(C)(C)C1=CC=C(O)C=C1,80-46-6,R1166028,M7553,-,-,4-tert-Amylphenol,Koerner,Koerner,A5912,-,-,-,10.43,Log unit,,-,Oc1ccc(cc1)C(CC)(C)C,
OC1=CC(=C(C=C1)[N+]([O-])=O)C(F)(F)F,88-30-2,R1166029,M14055,-,-,3-Trifluoromethyl-4-nitrophenol,Koerner,Koerner,A5912,-,-,-,6.07,Log unit,,-,Oc1cc(c([N+](=O)[O-])cc1)C(F)(F)F,
CC1=CC(O)=CC(C)=C1Cl,88-04-0,R1166030,M8220,-,-,"4-CHLORO-3,5-DIMETHYL PHENOL",Koerner,Koerner,A5912,-,-,-,9.702,Log unit,25,?C,Oc1cc(c(Cl)c(c1)C)C,
OC1=CC=C(C=C1)C1=CC=CC=C1,92-69-3,R1166031,M13909,-,-,4-Phenylphenol,Koerner,Koerner,A5912,-,-,-,9.55,Log unit,,-,Oc1ccc(cc1)c1ccccc1,
CCCCOC(=O)C1=CC=C(O)C=C1,94-26-8,R1166032,M9089,-,-,4-HYDROXY BUTYL BENZOATE,Koerner,Koerner,A5912,-,-,-,8.47,Log unit,,-,Oc1ccc(C(=O)OCCCC)cc1,
OC1=CC(Cl)=C(Cl)C=C1,95-77-2,R1166033,M12171,-,-,"3,4-Dichlorophenol",Koerner,Koerner,A5912,-,-,-,8.63,Log unit,,-,Oc1ccc(c(Cl)c1)Cl,
CC1=C(C)C=C(O)C=C1,95-65-8,R1166034,M13431,-,-,"3,4-Dimethylphenol",Koerner,Koerner,A5912,-,-,-,10.36,Log unit,25,?C,Oc1cc(c(cc1)C)C,
CC(C)(C)C1=CC=C(O)C=C1,98-54-4,R1166035,M9142,-,-,4-T-BUTYLYPHENOL,Koerner,Koerner,A5912,-,-,-,10.39,Log unit,25,?C,Oc1ccc(cc1)C(C)(C)C,
OC1=CC=CC(=C1)C(F)(F)F,98-17-9,R1166036,M11044,-,-,3-Trifluoromethylphenol,Koerner,Koerner,A5912,-,-,-,8.95,Log unit,25,?C,Oc1cc(C(F)(F)F)ccc1,
CC(=O)C1=CC=C(O)C=C1,99-93-4,R1166037,M10849,-,-,4-hydroxyacetophenone,Koerner,Koerner,A5912,-,-,-,8.05,Log unit,25,?C,Oc1ccc(cc1)C(=O)C,
CC(C)C1=CC=C(O)C=C1,99-89-8,R1166038,M13731,-,-,4-isopropylphenol,Koerner,Koerner,A5912,-,-,-,10.24,Log unit,25,?C,Oc1ccc(cc1)C(C)C,
OC1=CC(C=O)=CC=C1,100-83-4,R1166039,M4261,-,-,3-hydroxybenzaldehyde,Koerner,Koerner,A5912,-,-,-,8.98,Log unit,25,?C,Oc1cc(ccc1)C=O,
OC1=CC=C(C=C1)[N+]([O-])=O,100-02-7,R1166040,M1034,-,-,4-nitrophenol,Koerner,Koerner,A5912,-,-,-,7.15,Log unit,25,?C,Oc1ccc([N+](=O)[O-])cc1,
CC(=O)NC1=CC=C(O)C=C1,103-90-2,R1166041,M10192,-,-,N-(4-HYDROXYPHENYL)ACETAMIDE,Koerner,Koerner,A5912,-,-,-,9.38,Log unit,,-,Oc1ccc(NC(=O)C)cc1,
OC1=CC=C(Cl)C=C1,106-48-9,R1166042,M12688,-,-,4-Chlorophenol,Koerner,Koerner,A5912,-,-,-,9.41,Log unit,26,?C,Oc1ccc(Cl)cc1,
CC1=CC=C(O)C=C1,106-44-5,R1166043,M4734,-,-,4-cresol,Koerner,Koerner,A5912,-,-,-,10.26,Log unit,25,?C,Oc1ccc(cc1)C,
OC1=CC=C(Br)C=C1,106-41-2,R1166044,M3624,-,-,4-bromophenol,Koerner,Koerner,A5912,-,-,-,9.17,Log unit,25,?C,Oc1ccc(Br)cc1,
OC1=CC=CC=C1,108-95-2,R1166045,M4660,-,-,Phenol,Koerner,Koerner,A5912,-,-,-,9.994,Log unit,25,?C,Oc1ccccc1,
CC1=CC(O)=CC(C)=C1,108-68-9,R1166046,M10784,-,-,"3,5-Dimethylphenol",Koerner,Koerner,A5912,-,-,-,10.19,Log unit,25,?C,Oc1cc(cc(c1)C)C,
OC1=CC=CC(Cl)=C1,108-43-0,R1166047,M3973,-,-,3-Chlorophenol,Koerner,Koerner,A5912,-,-,-,9.12,Log unit,,-,Oc1cc(Cl)ccc1,
CC1=CC=CC(O)=C1,108-39-4,R1166048,M9841,-,-,3-cresol,Koerner,Koerner,A5912,-,-,-,10.09,Log unit,25,?C,Oc1cc(ccc1)C,
CCOC(=O)C1=CC=C(O)C=C1,120-47-8,R1166049,M7615,-,-,"4-HYDROXYBENZOIC ACID,ETHYL ESTER",Koerner,Koerner,A5912,-,-,-,8.34,Log unit,25,?C,Oc1ccc(C(=O)OCC)cc1,
CC(=O)C1=CC=CC(O)=C1,121-71-1,R1166050,M6485,-,-,3-hydroxyacetophenone,Koerner,Koerner,A5912,-,-,-,9.25,Log unit,25,?C,Oc1cc(ccc1)C(=O)C,
NC1=CC=C(O)C=C1,123-30-8,R1166051,M8656,-,-,4-AMINO-PHENOL,Koerner,Koerner,A5912,-,-,-,10.45,Log unit,,-,Oc1ccc(N)cc1,
OC1=CC=C(C=O)C=C1,123-08-0,R1166052,M9708,-,-,4-hydroxybenzaldehyde,Koerner,Koerner,A5912,-,-,-,7.61,Log unit,25,?C,Oc1ccc(cc1)C=O,
CCC1=CC=C(O)C=C1,123-07-9,R1166053,M4171,-,-,4-Ethylphenol,Koerner,Koerner,A5912,-,-,-,10,Log unit,25,?C,Oc1ccc(cc1)CC,
COC1=CC=C(O)C=C1,150-76-5,R1166054,M7663,-,-,4-Methoxyphenol,Koerner,Koerner,A5912,-,-,-,10.1,Log unit,25,?C,Oc1ccc(OC)cc1,
COC1=CC(O)=CC=C1,150-19-6,R1166055,M436,-,-,3-Methoxyphenol,Koerner,Koerner,A5912,-,-,-,9.65,Log unit,25,?C,Oc1cc(OC)ccc1,
OC1=CC=C(F)C=C1,371-41-5,R1166056,M9737,-,-,4-fluorophenol,Koerner,Koerner,A5912,-,-,-,9.91,Log unit,25,?C,Oc1ccc(F)cc1,
OC1=CC=CC(F)=C1,372-20-3,R1166057,M10413,-,-,3-fluorophenol,Koerner,Koerner,A5912,-,-,-,9.21,Log unit,25,?C,Oc1cc(F)ccc1,
OC1=CC=C(C=C1)C(F)(F)F,402-45-9,R1166058,M640,-,-,4-Trifluoromethylphenol,Koerner,Koerner,A5912,-,-,-,8.675,Log unit,25,?C,Oc1ccc(C(F)(F)F)cc1,
COC1=CC(OC)=CC(O)=C1,500-99-2,R1166059,M13153,-,-,"3,5-Dimethoxyphenol",Koerner,Koerner,A5912,-,-,-,9.34,Log unit,25,?C,Oc1cc(cc(OC)c1)OC,
OC1=CC=C(I)C=C1,540-38-5,R1166060,M11943,-,-,4-Iodophenol,Koerner,Koerner,A5912,-,-,-,9.21,Log unit,25,?C,Oc1ccc(I)cc1,
OC1=CC=CC(=C1)[N+]([O-])=O,554-84-7,R1166061,M10051,-,-,3-nitrophenol,Koerner,Koerner,A5912,-,-,-,8.36,Log unit,,-,Oc1cc([N+](=O)[O-])ccc1,
OC1=CC(=C(C=C1)[N+]([O-])=O)[N+]([O-])=O,577-71-9,R1166062,M228,-,-,"3,4-dinitrophenol",Koerner,Koerner,A5912,-,-,-,5.42,Log unit,25,?C,Oc1ccc(c([N+](=O)[O-])c1)[N+](=O)[O-],
OC1=CC(=CC=C1)C1=CC=CC=C1,580-51-8,R1166063,M10945,-,-,3-PHENYLPHENOL,Koerner,Koerner,A5912,-,-,-,9.64,Log unit,23,?C,Oc1cc(ccc1)c1ccccc1,
CC(C)(C)C1=CC=CC(O)=C1,585-34-2,R1166064,M1745,-,-,"3-(1,1-DIMETHYLETHYL)-PHENOL",Koerner,Koerner,A5912,-,-,-,10.119,Log unit,25,?C,Oc1cc(ccc1)C(C)(C)C,
OC1=CC(=CC(=C1)[N+]([O-])=O)[N+]([O-])=O,586-11-8,R1166065,M10996,-,-,"3,5-Dinitrophenol",Koerner,Koerner,A5912,-,-,-,6.69,Log unit,25,?C,Oc1cc(cc([N+](=O)[O-])c1)[N+](=O)[O-],