Smiles,CASRN,Record ID,Molecule ID,External ID,N,Name,Introducer,Modifer,Article ID,PUBMED ID,PAGE,TABLE,pKa,pKa Unit,Temperature,Temperature Unit,Ionizable center smiles,IC group
OC(=O)C1=CC2=CC3=CC=CC=C3C=C2C=C1,-,R935990,M108256,-,-,Anthracene-2-carboxylic acid,Koerner,charochkina,A5793,-,-,-,4.18,Log unit,25,?C,OC(=O)c1cc2cc3ccccc3cc2cc1,"{co2h=10, aliphatic_carboxylic_acid=10}"
OC(=O)C1=C2C=CC=CC2=CC2=CC=CC=C12,-,R935991,M23450,-,-,ANTHRACENE-9-CARBOXYLIC ACID,Koerner,charochkina,A5793,-,-,-,3.65,Log unit,25,?C,OC(=O)c1c2ccccc2cc2c1cccc2,"{co2h=10, aliphatic_carboxylic_acid=10}"
OC(=O)C1=CC=CC=C1C(O)=O,-,R935992,M13075,-,-,phthalic acid,Koerner,charochkina,A5793,-,-,-,3.3,Log unit,25,?C,OC(=O)c1ccccc1C(=O)O,"{co2h=6, aliphatic_carboxylic_acid=6}"
OC(=O)C1=CC(=CC=C1)C(O)=O,-,R935993,M9359,-,-,"1,3-Benzenedicarboxylic acid",Koerner,charochkina,A5793,-,-,-,4,Log unit,25,?C,OC(=O)c1cccc(c1)C(=O)O,"{co2h=6, aliphatic_carboxylic_acid=6}"
OC(=O)C1=CC=CC(=C1)C([O-])=O,-,R935994,M9359,-,-,"1,3-Benzenedicarboxylic acid",Koerner,charochkina,A5793,-,-,-,4.3,Log unit,25,?C,OC(=O)c1cccc(c1)C(=O)[O-],"{co2h=11, aliphatic_carboxylic_acid=11}"
OC(=O)C1=CC=C(C=C1)C(O)=O,-,R935995,M18313,-,-,TEREPHTHALIC ACID,Koerner,charochkina,A5793,-,-,-,3.5,Log unit,25,?C,OC(=O)c1ccc(cc1)C(=O)O,"{co2h=6, aliphatic_carboxylic_acid=6}"
OC(=O)C1=CC=C(C=C1)C([O-])=O,-,R935996,M18313,-,-,TEREPHTHALIC ACID,Koerner,charochkina,A5793,-,-,-,4.3,Log unit,25,?C,OC(=O)c1ccc(cc1)C(=O)[O-],"{co2h=6, aliphatic_carboxylic_acid=6}"
OC(=O)C1=CC(=CC(=C1)C(O)=O)C(O)=O,-,R935997,M21680,-,-,"benzene-1,3,5-tricarboxylic acid",Koerner,charochkina,A5793,-,-,-,3.6,Log unit,25,?C,OC(=O)c1cc(cc(c1)C(=O)O)C(=O)O,"{co2h=6, aliphatic_carboxylic_acid=6}"
OC(=O)C1=CC(=CC(=C1)C(O)=O)C([O-])=O,-,R935998,M21680,-,-,"benzene-1,3,5-tricarboxylic acid",Koerner,charochkina,A5793,-,-,-,3.9,Log unit,25,?C,OC(=O)c1cc(cc(c1)C(=O)[O-])C(=O)O,"{co2h=9, aliphatic_carboxylic_acid=9}"
OC(=O)C1=CC(=CC(=C1)C([O-])=O)C([O-])=O,-,R935999,M21680,-,-,"benzene-1,3,5-tricarboxylic acid",Koerner,charochkina,A5793,-,-,-,4.4,Log unit,25,?C,OC(=O)c1cc(cc(C(=O)[O-])c1)C(=O)[O-],"{co2h=14, aliphatic_carboxylic_acid=14}"
OC(=O)C1=CC(C(O)=O)=C(C=C1)C(O)=O,-,R936000,M21275,-,-,"Benzene-1,2,4-tricarboxylic acid",Koerner,charochkina,A5793,-,-,-,2.82,Log unit,25,?C,OC(=O)c1c(ccc(c1)C(=O)O)C(=O)O,"{co2h=6, aliphatic_carboxylic_acid=6}"
OC(=O)C1=CC(C([O-])=O)=C(C=C1)C(O)=O,-,R936001,M21275,-,-,"Benzene-1,2,4-tricarboxylic acid",Koerner,charochkina,A5793,-,-,-,3.84,Log unit,25,?C,OC(=O)c1ccc(cc1C(=O)[O-])C(=O)O,"{co2h=9, aliphatic_carboxylic_acid=9}"
OC(=O)C1=C(C=C(C=C1)C([O-])=O)C([O-])=O,-,R936002,M21275,-,-,"Benzene-1,2,4-tricarboxylic acid",Koerner,charochkina,A5793,-,-,-,4.9,Log unit,25,?C,OC(=O)c1ccc(cc1C(=O)[O-])C(=O)[O-],"{co2h=9, aliphatic_carboxylic_acid=9}"
OC(=O)C1=CC=CC(C(O)=O)=C1C(O)=O,-,R936003,M21826,-,-,"1,2,3-Benzenetricarboxylic acid",Koerner,charochkina,A5793,-,-,-,2.8,Log unit,25,?C,OC(=O)c1c(cccc1C(=O)O)C(=O)O,"{co2h=6, aliphatic_carboxylic_acid=6}"
OC(=O)C1=CC=CC(C(O)=O)=C1C([O-])=O,-,R936004,M21826,-,-,"1,2,3-Benzenetricarboxylic acid",Koerner,charochkina,A5793,-,-,-,4.5,Log unit,25,?C,OC(=O)c1cccc(c1C(=O)[O-])C(=O)O,"{co2h=9, aliphatic_carboxylic_acid=9}"
OC(=O)C1=CC=CC(C([O-])=O)=C1C([O-])=O,-,R936005,M21826,-,-,"1,2,3-Benzenetricarboxylic acid",Koerner,charochkina,A5793,-,-,-,4.85,Log unit,25,?C,OC(=O)c1cccc(c1C(=O)[O-])C(=O)[O-],"{co2h=14, aliphatic_carboxylic_acid=14}"
OC(=O)C1=C(C(O)=O)C(C(O)=O)=C(C=C1)C(O)=O,-,R936006,M20703,-,-,"Benzene-1,2,3,4-tetracarboxylic acid",Koerner,charochkina,A5793,-,-,-,2.35,Log unit,25,?C,OC(=O)c1c(ccc(c1C(=O)O)C(=O)O)C(=O)O,"{co2h=6, aliphatic_carboxylic_acid=6}"
OC(=O)C1=C(C(O)=O)C(C([O-])=O)=C(C=C1)C(O)=O,-,R936007,M20703,-,-,"Benzene-1,2,3,4-tetracarboxylic acid",Koerner,charochkina,A5793,-,-,-,2.9,Log unit,25,?C,OC(=O)c1ccc(c(c1C(=O)[O-])C(=O)O)C(=O)O,"{co2h=9, aliphatic_carboxylic_acid=9}"
OC(=O)C1=C(C([O-])=O)C(C(O)=O)=C(C=C1)C([O-])=O,-,R936008,M20703,-,-,"Benzene-1,2,3,4-tetracarboxylic acid",Koerner,charochkina,A5793,-,-,-,4.43,Log unit,25,?C,OC(=O)c1ccc(c(c1C(=O)[O-])C(=O)O)C(=O)[O-],"{co2h=9, aliphatic_carboxylic_acid=9}"
OC(=O)C1=C(C=CC(C([O-])=O)=C1C([O-])=O)C([O-])=O,-,R936009,M20703,-,-,"Benzene-1,2,3,4-tetracarboxylic acid",Koerner,charochkina,A5793,-,-,-,5.8,Log unit,25,?C,OC(=O)c1c(ccc(c1C(=O)[O-])C(=O)[O-])C(=O)[O-],"{co2h=14, aliphatic_carboxylic_acid=14}"
OC(=O)C1=CC(C(O)=O)=C(C=C1C(O)=O)C(O)=O,-,R936010,M17901,-,-,"1,2,4,5-Benzenetetracarboxylic acid",Koerner,charochkina,A5793,-,-,-,2.22,Log unit,25,?C,OC(=O)c1c(cc(c(c1)C(=O)O)C(=O)O)C(=O)O,"{co2h=6, aliphatic_carboxylic_acid=6}"
OC(=O)C1=CC(C(O)=O)=C(C=C1C([O-])=O)C(O)=O,-,R936011,M17901,-,-,"1,2,4,5-Benzenetetracarboxylic acid",Koerner,charochkina,A5793,-,-,-,3,Log unit,25,?C,OC(=O)c1cc(c(cc1C(=O)[O-])C(=O)O)C(=O)O,"{co2h=9, aliphatic_carboxylic_acid=9}"
OC(=O)C1=CC(C([O-])=O)=C(C=C1C([O-])=O)C(O)=O,-,R936012,M17901,-,-,"1,2,4,5-Benzenetetracarboxylic acid",Koerner,charochkina,A5793,-,-,-,4.6,Log unit,25,?C,OC(=O)c1cc(c(cc1C(=O)[O-])C(=O)O)C(=O)[O-],"{co2h=9, aliphatic_carboxylic_acid=9}"
OC(=O)C1=C(C=C(C([O-])=O)C(=C1)C([O-])=O)C([O-])=O,-,R936013,M17901,-,-,"1,2,4,5-Benzenetetracarboxylic acid",Koerner,charochkina,A5793,-,-,-,5.3,Log unit,25,?C,OC(=O)c1c(cc(c(c1)C(=O)[O-])C(=O)[O-])C(=O)[O-],"{co2h=14, aliphatic_carboxylic_acid=14}"
OC(=O)C1=CC(C(O)=O)=C(C(O)=O)C(C(O)=O)=C1C(O)=O,-,R936014,M25411,-,-,benzene-pentacarboxylic acid,Koerner,charochkina,A5793,-,-,-,2.3,Log unit,25,?C,OC(=O)c1c(c(cc(c1C(=O)O)C(=O)O)C(=O)O)C(=O)O,"{co2h=6, aliphatic_carboxylic_acid=6}"
OC(=O)C1=CC(C(O)=O)=C(C(O)=O)C(C([O-])=O)=C1C(O)=O,-,R936015,M25411,-,-,benzene-pentacarboxylic acid,Koerner,charochkina,A5793,-,-,-,2.7,Log unit,25,?C,OC(=O)c1c(cc(c(c1C(=O)[O-])C(=O)O)C(=O)O)C(=O)O,"{co2h=9, aliphatic_carboxylic_acid=9}"
OC(=O)C1=C(C(O)=O)C(C([O-])=O)=C(C(O)=O)C(=C1)C([O-])=O,-,R936016,M25411,-,-,benzene-pentacarboxylic acid,Koerner,charochkina,A5793,-,-,-,3.5,Log unit,25,?C,OC(=O)c1c(cc(c(c1C(=O)[O-])C(=O)O)C(=O)O)C(=O)[O-],"{co2h=9, aliphatic_carboxylic_acid=9}"
OC(=O)C1=C(C([O-])=O)C(C(O)=O)=C(C=C1C([O-])=O)C([O-])=O,-,R936017,M25411,-,-,benzene-pentacarboxylic acid,Koerner,charochkina,A5793,-,-,-,5.5,Log unit,25,?C,OC(=O)c1c(cc(c(c1C(=O)[O-])C(=O)O)C(=O)[O-])C(=O)[O-],"{co2h=9, aliphatic_carboxylic_acid=9}"
OC(=O)C1=C(C=C(C([O-])=O)C(C([O-])=O)=C1C([O-])=O)C([O-])=O,-,R936018,M25411,-,-,benzene-pentacarboxylic acid,Koerner,charochkina,A5793,-,-,-,6,Log unit,25,?C,OC(=O)c1c(cc(c(c1C(=O)[O-])C(=O)[O-])C(=O)[O-])C(=O)[O-],"{co2h=17, aliphatic_carboxylic_acid=17}"
OC(=O)C1=C(C([O-])=O)C(C([O-])=O)=C(C([O-])=O)C(C([O-])=O)=C1C([O-])=O,-,R936019,M21164,-,-,373 440 benzenehexacarboxylic acid,Koerner,charochkina,A5793,-,-,-,6.17,Log unit,25,?C,OC(=O)c1c(c(c(c(c1C(=O)[O-])C(=O)[O-])C(=O)[O-])C(=O)[O-])C(=O)[O-],"{co2h=23, aliphatic_carboxylic_acid=23}"
OC(=O)C1=C(C(O)=O)C(C(O)=O)=C(C(O)=O)C(C(O)=O)=C1C(O)=O,-,R936020,M21164,-,-,371 440 benzenehexacarboxylic acid,Koerner,charochkina,A5793,-,-,-,2.18,Log unit,25,?C,OC(=O)c1c(C(=O)O)c(C(=O)O)c(C(=O)O)c(C(=O)O)c1C(=O)O,"{co2h=2, aliphatic_carboxylic_acid=2}"
OC(=O)C1=C(C(O)=O)C(C(O)=O)=C(C([O-])=O)C(C(O)=O)=C1C(O)=O,-,R936021,M21164,-,-,371 440 benzenehexacarboxylic acid,Koerner,charochkina,A5793,-,-,-,2.6,Log unit,25,?C,OC(=O)c1c(C(=O)[O-])c(c(c(c1C(=O)O)C(=O)O)C(=O)O)C(=O)O,"{co2h=7, aliphatic_carboxylic_acid=7}"
OC(=O)C1=C(C(O)=O)C(C([O-])=O)=C(C(O)=O)C(C([O-])=O)=C1C(O)=O,-,R936022,M21164,-,-,371 440 benzenehexacarboxylic acid,Koerner,charochkina,A5793,-,-,-,3.2,Log unit,25,?C,OC(=O)c1c(C(=O)[O-])c(c(c(c1C(=O)[O-])C(=O)O)C(=O)O)C(=O)O,"{co2h=7, aliphatic_carboxylic_acid=7}"
OC(=O)C1=C(C([O-])=O)C(C(O)=O)=C(C([O-])=O)C(C(O)=O)=C1C([O-])=O,-,R936023,M21164,-,-,372 440 benzenehexacarboxylic acid,Koerner,charochkina,A5793,-,-,-,4.66,Log unit,25,?C,OC(=O)c1c(C(=O)[O-])c(c(c(c1C(=O)[O-])C(=O)O)C(=O)[O-])C(=O)O,"{co2h=7, aliphatic_carboxylic_acid=7}"
OC(=O)C1=C(C([O-])=O)C(C([O-])=O)=C(C([O-])=O)C(C(O)=O)=C1C([O-])=O,-,R936024,M21164,-,-,372 440 benzenehexacarboxylic acid,Koerner,charochkina,A5793,-,-,-,5.4,Log unit,25,?C,OC(=O)c1c(C(=O)[O-])c(c(c(c1C(=O)[O-])C(=O)O)C(=O)[O-])C(=O)[O-],"{co2h=7, aliphatic_carboxylic_acid=7}"
OC(=O)C1=CC=CC=C1F,-,R936025,M20472,-,-,2-fluoro-benzoic acid,Koerner,charochkina,A5793,-,-,-,3.085,Log unit,25,?C,OC(=O)c1c(F)cccc1,"{co2h=9, aliphatic_carboxylic_acid=9}"
OC(=O)C1=CC(F)=CC=C1,-,R936026,M7098,-,-,m-fluoro-benzoic acid,Koerner,charochkina,A5793,-,-,-,3.855,Log unit,25,?C,OC(=O)c1cc(F)ccc1,"{co2h=9, aliphatic_carboxylic_acid=9}"
OC(=O)C1=CC=C(F)C=C1,-,R936027,M659,-,-,p-fluoro-benzoic acid,Koerner,charochkina,A5793,-,-,-,4.145,Log unit,25,?C,OC(=O)c1ccc(F)cc1,"{co2h=7, aliphatic_carboxylic_acid=7}"
OC(=O)C1=CC=CC=C1Cl,-,R936028,M4441,-,-,2-chloro-benzoic acid,Koerner,charochkina,A5793,-,-,-,2.965,Log unit,25,?C,OC(=O)c1c(Cl)cccc1,"{co2h=9, aliphatic_carboxylic_acid=9}"
OC(=O)C1=CC(Cl)=CC=C1,-,R936029,M6489,-,-,m-chloro-benzoic acid,Koerner,charochkina,A5793,-,-,-,3.83,Log unit,25,?C,OC(=O)c1cc(Cl)ccc1,"{co2h=9, aliphatic_carboxylic_acid=9}"
OC(=O)C1=CC=C(Cl)C=C1,-,R936030,M13178,-,-,p-chloro-benzoic acid,Koerner,charochkina,A5793,-,-,-,3.99,Log unit,25,?C,OC(=O)c1ccc(Cl)cc1,"{co2h=7, aliphatic_carboxylic_acid=7}"
OC(=O)C1=CC=CC=C1Br,-,R936031,M17889,-,-,2-bromo-benzoic acid,Koerner,charochkina,A5793,-,-,-,2.88,Log unit,25,?C,OC(=O)c1c(Br)cccc1,"{co2h=9, aliphatic_carboxylic_acid=9}"
OC(=O)C1=CC(Br)=CC=C1,-,R936032,M11849,-,-,m-bromo-benzoic acid,Koerner,charochkina,A5793,-,-,-,3.81,Log unit,25,?C,OC(=O)c1cc(Br)ccc1,"{co2h=9, aliphatic_carboxylic_acid=9}"
OC(=O)C1=CC=C(Br)C=C1,-,R936033,M10796,-,-,p-bromo-benzoic acid,Koerner,charochkina,A5793,-,-,-,4,Log unit,25,?C,OC(=O)c1ccc(Br)cc1,"{co2h=7, aliphatic_carboxylic_acid=7}"
OC(=O)C1=CC=CC=C1I,-,R936034,M1401,-,-,2-Iodo-benzoic acid,Koerner,charochkina,A5793,-,-,-,2.93,Log unit,25,?C,OC(=O)c1c(I)cccc1,"{co2h=9, aliphatic_carboxylic_acid=9}"
OC(=O)C1=CC(I)=CC=C1,-,R936035,M5883,-,-,m-iodine-benzoic acid,Koerner,charochkina,A5793,-,-,-,3.855,Log unit,25,?C,OC(=O)c1cc(I)ccc1,"{co2h=9, aliphatic_carboxylic_acid=9}"
OC(=O)C1=CC=CC=C1C#N,-,R936036,M124299,-,-,2-cyano-benzoic acid,Koerner,charochkina,A5793,-,-,-,3.14,Log unit,25,?C,OC(=O)c1ccccc1C#N,"{co2h=6, aliphatic_carboxylic_acid=6}"
OC(=O)C1=CC=CC(=C1)C#N,-,R936037,M3610,-,-,m-cyano-benzoic acid,Koerner,charochkina,A5793,-,-,-,3.6,Log unit,25,?C,OC(=O)c1cccc(c1)C#N,"{co2h=10, aliphatic_carboxylic_acid=10}"
OC(=O)C1=CC=C(C=C1)C#N,-,R936038,M60,-,-,p-cyano-benzoic acid,Koerner,charochkina,A5793,-,-,-,3.55,Log unit,25,?C,OC(=O)c1ccc(cc1)C#N,"{co2h=6, aliphatic_carboxylic_acid=6}"
OC(=O)C1=CC=CC=C1O,-,R936039,M13520,-,-,2-hydroxy-benzoic acid,Koerner,charochkina,A5793,-,-,-,3.0075,Log unit,25,?C,OC(=O)c1ccccc1O,"{co2h=6, aliphatic_carboxylic_acid=6}"
OC1=CC=CC=C1C([O-])=O,-,R936040,M13520,-,-,2-hydroxy-benzoic acid,Koerner,charochkina,A5793,-,-,-,13.5,Log unit,25,?C,Oc1ccccc1C(=O)[O-],{oh=9}
OC(=O)C1=CC=CC(O)=C1,-,R936041,M4429,-,-,m-hydroxy-benzoic acid,Koerner,charochkina,A5793,-,-,-,4.02,Log unit,25,?C,OC(=O)c1cccc(O)c1,"{co2h=9, aliphatic_carboxylic_acid=9}"
OC1=CC(=CC=C1)C([O-])=O,-,R936042,M4429,-,-,m-hydroxy-benzoic acid,Koerner,charochkina,A5793,-,-,-,9.9,Log unit,25,?C,Oc1cccc(c1)C(=O)[O-],{oh=3}
OC(=O)C1=CC=C(O)C=C1,-,R936043,M2644,-,-,p-hydroxy-benzoic acid,Koerner,charochkina,A5793,-,-,-,4.5,Log unit,25,?C,OC(=O)c1ccc(O)cc1,"{co2h=7, aliphatic_carboxylic_acid=7}"
OC1=CC=C(C=C1)C([O-])=O,-,R936044,M2644,-,-,p-hydroxy-benzoic acid,Koerner,charochkina,A5793,-,-,-,9.4,Log unit,25,?C,Oc1ccc(C(=O)[O-])cc1,{oh=0}
OC(=O)C1=CC=C(O)C=C1O,-,R936045,M11089,-,-,"2,4-dihydroxy-benzoic acid",Koerner,charochkina,A5793,-,-,-,3.3125,Log unit,25,?C,OC(=O)c1ccc(O)cc1O,"{co2h=7, aliphatic_carboxylic_acid=7}"
OC1=CC([O-])=CC=C1C([O-])=O,-,R936046,M11089,-,-,"2,4-dihydroxy-benzoic acid",Koerner,charochkina,A5793,-,-,-,14,Log unit,25,?C,Oc1cc([O-])ccc1C(=O)[O-],{oh=10}
OC(=O)C1=CC=C(O)C(O)=C1,-,R936047,M18287,-,-,"3,4-dihydroxy-benzoic acid",Koerner,charochkina,A5793,-,-,-,4.375,Log unit,25,?C,OC(=O)c1ccc(O)c(O)c1,"{co2h=7, aliphatic_carboxylic_acid=7}"
OC1=CC(=CC=C1[O-])C([O-])=O,-,R936048,M18287,-,-,"3,4-dihydroxy-benzoic acid",Koerner,charochkina,A5793,-,-,-,12.6,Log unit,25,?C,Oc1c([O-])ccc(C(=O)[O-])c1,{oh=9}
OC(=O)C1=CC(O)=CC(O)=C1,-,R936049,M18271,-,-,"3,5-dihydroxy-benzoic acid",Koerner,charochkina,A5793,-,-,-,4.04,Log unit,25,?C,OC(=O)c1cc(O)cc(O)c1,"{co2h=10, aliphatic_carboxylic_acid=10}"
OC(=O)C1=C(O)C=CC=C1O,-,R936050,M218,-,-,"2,6-dihydroxy-benzoic acid",Koerner,charochkina,A5793,-,-,-,1.0605,Log unit,25,?C,OC(=O)c1c(cccc1O)O,"{co2h=7, aliphatic_carboxylic_acid=7}"
OC(=O)C1=CC(O)=C(O)C(O)=C1,-,R936051,M6312,-,-,gallic acid,Koerner,charochkina,A5793,-,-,-,4.27,Log unit,25,?C,OC(=O)c1cc(O)c(O)c(c1)O,"{co2h=7, aliphatic_carboxylic_acid=7}"
OC(=O)C1=CC(=CC(=C1O)N(=O)=O)N(=O)=O,-,R936052,M22380,-,-,"2-HYDROXY-3,5-DINITRO-BENZOIC ACID",Koerner,charochkina,A5793,-,-,-,0.7,Log unit,25,?C,OC(=O)c1c(O)c(cc(N(=O)=O)c1)N(=O)=O,"{co2h=15, aliphatic_carboxylic_acid=15}"
OC1=C(C=C(C=C1C([O-])=O)N(=O)=O)N(=O)=O,-,R936053,M22380,-,-,"2-HYDROXY-3,5-DINITRO-BENZOIC ACID",Koerner,charochkina,A5793,-,-,-,7.34,Log unit,25,?C,Oc1c(cc(N(=O)=O)cc1C(=O)[O-])N(=O)=O,{oh=0}
OC(=O)C1=CC=CC=C1N(=O)=O,-,R936054,M10447,-,-,2-nitro-benzoic acid,Koerner,charochkina,A5793,-,-,-,2.34,Log unit,25,?C,OC(=O)c1ccccc1N(=O)=O,"{co2h=6, aliphatic_carboxylic_acid=6}"
OC(=O)C1=CC=CC(=C1)N(=O)=O,-,R936055,M120,-,-,m-nitro-benzoic acid,Koerner,charochkina,A5793,-,-,-,3.465,Log unit,25,?C,OC(=O)c1cccc(c1)N(=O)=O,"{co2h=11, aliphatic_carboxylic_acid=11}"
OC(=O)C1=CC=C(C=C1)N(=O)=O,-,R936056,M8250,-,-,p-nitro-benzoic acid,Koerner,charochkina,A5793,-,-,-,3.435,Log unit,25,?C,OC(=O)c1ccc(cc1)N(=O)=O,"{co2h=6, aliphatic_carboxylic_acid=6}"
OC(=O)COC1=CC=C(C=C1)N(=O)=O,-,R935857,M508,-,-,p-nitrophenoxy-acetic acid,Koerner,charochkina,A5793,-,-,-,2.85,Log unit,25,?C,OC(=O)COc1ccc(cc1)N(=O)=O,"{co2h=8, aliphatic_carboxylic_acid=8}"
OC(=O)COC1=CC=C(Cl)C(=C1)N(=O)=O,-,R935858,M46286,-,-,3-nitro-4-chloro-phenoxy-acetic acid,Koerner,charochkina,A5793,-,-,-,2.96,Log unit,25,?C,OC(=O)COc1ccc(Cl)c(c1)N(=O)=O,"{co2h=9, aliphatic_carboxylic_acid=9}"
CC(O)C(=O)OC(C)C(O)=O,-,R935859,M22561,-,-,dilactic acid,Koerner,charochkina,A5793,-,-,-,2.95,Log unit,25,?C,OC(=O)C(OC(=O)C(O)C)C,"{co2h=6, aliphatic_carboxylic_acid=6}"
OC(CCl)C(O)=O,-,R935860,M70081,-,-,beta-chloro-lactic acid,Koerner,charochkina,A5793,-,-,-,3.12,Log unit,25,?C,OC(=O)C(CCl)O,"{co2h=6, aliphatic_carboxylic_acid=6}"
CC(O)C(Cl)C(O)=O,-,R935861,M134217,-,-,"alpha,chloro-beta-hydroxy-n-butyric acid",Koerner,charochkina,A5793,-,-,-,2.58,Log unit,25,?C,OC(=O)C(Cl)C(O)C,"{co2h=4, aliphatic_carboxylic_acid=4}"
CC(Cl)C(O)C(O)=O,-,R935862,M1018403,-,-,alpha-hydroxy-beta-chloro-n-butyric acid,Koerner,charochkina,A5793,-,-,-,3.08,Log unit,25,?C,OC(=O)C(C(Cl)C)O,"{co2h=7, aliphatic_carboxylic_acid=7}"
CC(O)(CCl)C(O)=O,-,R935863,M108911,-,-,alpha-hydroxy-beta-chloro-iso-butyric acid,Koerner,charochkina,A5793,-,-,-,3.2,Log unit,25,?C,OC(=O)C(CCl)(O)C,"{co2h=7, aliphatic_carboxylic_acid=7}"
OC(C(Cl)C(O)=O)C(O)=O,-,R935864,M1018404,-,-,alpha-hydroxy-alpha'-chlorobutyric acid,Koerner,charochkina,A5793,-,-,-,2.32,Log unit,25,?C,OC(=O)C(Cl)C(O)C(=O)O,"{co2h=4, aliphatic_carboxylic_acid=4}"
CC(=O)OC(CC(O)=O)(CC(O)=O)C(O)=O,-,R935865,M1018405,-,-,acetylcitric acid,Koerner,charochkina,A5793,-,-,-,2.49,Log unit,25,?C,OC(=O)C(OC(=O)C)(CC(=O)O)CC(=O)O,"{co2h=6, aliphatic_carboxylic_acid=6}"
OC(C(Cl)C(O)=O)C1=CC=CC=C1,-,R935866,M1050309,-,-,alpha-chloro-beta-hydroxy-beta-phenyl-propionic acid,Koerner,charochkina,A5793,-,-,-,2.6,Log unit,25,?C,OC(=O)C(Cl)C(O)c1ccccc1,"{co2h=12, aliphatic_carboxylic_acid=12}"
OC(=O)C1OC1C([O-])=O,-,R935867,M72638,-,-,trans-ethyleneoxidedicarboxylic acid,Koerner,charochkina,A5793,-,-,-,4.3,Log unit,25,?C,OC(=O)C1OC1C(=O)[O-],"{co2h=4, aliphatic_carboxylic_acid=4}"
NC(=O)CC(O)=O,-,R935868,M71075,-,-,malonic acid monoamide,Koerner,charochkina,A5793,-,-,-,3.64,Log unit,25,?C,OC(=O)CC(=O)N,"{co2h=2, aliphatic_carboxylic_acid=2}"
NC(=O)CCC(O)=O,-,R935869,M67369,-,-,succinic acid monoamide,Koerner,charochkina,A5793,-,-,-,4.54,Log unit,25,?C,OC(=O)CCC(=O)N,"{co2h=2, aliphatic_carboxylic_acid=2}"
NC(=O)CCCC(O)=O,-,R935870,M1018407,-,-,glutaric acid monoamide,Koerner,charochkina,A5793,-,-,-,4.6,Log unit,25,?C,OC(=O)CCCC(=O)N,"{co2h=2, aliphatic_carboxylic_acid=2}"
NC(=O)CCCCC(O)=O,-,R935871,M1018408,-,-,adipic acid monoamide,Koerner,charochkina,A5793,-,-,-,4.63,Log unit,25,?C,OC(=O)CCCCC(=O)N,"{co2h=2, aliphatic_carboxylic_acid=2}"
OC(=O)CSSCC(O)=O,-,R935872,M66642,-,-,Dithiodiacetic acid,Koerner,charochkina,A5793,-,-,-,3.115,Log unit,25,?C,OC(=O)CSSCC(=O)O,"{co2h=5, aliphatic_carboxylic_acid=5}"
OC(=O)CSCSCC(O)=O,-,R935873,M70637,-,-,methylene-bis-thioacetic acid,Koerner,charochkina,A5793,-,-,-,3.305,Log unit,25,?C,OC(=O)CSCSCC(=O)O,"{co2h=6, aliphatic_carboxylic_acid=6}"
CC(SCC(O)=O)C(O)=O,-,R935874,M1018409,-,-,alpha-thiopropionic acid-acetic acid,Koerner,charochkina,A5793,-,-,-,3.38,Log unit,25,?C,OC(=O)CSC(C(=O)O)C,"{co2h=4, aliphatic_carboxylic_acid=4}"
CC(SSC(C)C(O)=O)C(O)=O,-,R935875,M29683,-,-,rac-alpha-dithiodipropionic acid,Koerner,charochkina,A5793,-,-,-,3.45,Log unit,25,?C,OC(=O)C(SSC(C(=O)O)C)C,"{co2h=5, aliphatic_carboxylic_acid=5}"
CC(SSC(C)C(O)=O)C(O)=O,-,R935876,M29683,-,-,rac-alpha-dithiodipropionic acid,Koerner,charochkina,A5793,-,-,-,3.15,Log unit,25,?C,OC(=O)C(SSC(C(=O)O)C)C,"{co2h=5, aliphatic_carboxylic_acid=5}"
[NH3+]CCSCCCCCCCCCC(O)=O,-,R935877,M1034165,-,-,10-(aminoethylthio)-n-decanoic acid,Koerner,charochkina,A5793,-,-,-,4,Log unit,25,?C,OC(=O)CCCCCCCCCSCC[NH3+],"{co2h=15, aliphatic_carboxylic_acid=15}"
NCCSCCCCCCCCCCC([O-])=O,-,R935878,M1034166,-,-,11-(aminoethylthio)-n-undecanoic acid,Koerner,charochkina,A5793,-,-,-,9.6,Log unit,25,?C,NCCSCCCCCCCCCCC(=O)[O-],{nr2=3}
OC(=O)CCCCCCCCCC[NH2+]CCSSCC[NH2+]CCCCCCCCCCC(O)=O,-,R935879,M1034167,-,-,"11,11'-(dithio-bis-ethylamine)-di-n-undecanoic acid",Koerner,charochkina,A5793,-,-,-,3.5,Log unit,25,?C,OC(=O)CCCCCCCCCC[NH2+]CCSSCC[NH2+]CCCCCCCCCCC(=O)O,"{co2h=17, aliphatic_carboxylic_acid=17}"
[O-]C(=O)CCCCCCCCCCNCCSSCC[NH2+]CCCCCCCCCCC([O-])=O,-,R935880,M1034167,-,-,"11,11'-(dithio-bis-ethylamine)-di-n-undecanoic acid",Koerner,charochkina,A5793,-,-,-,10.2,Log unit,25,?C,N(CCSSCC[NH2+]CCCCCCCCCCC(=O)[O-])CCCCCCCCCCC(=O)[O-],{nr2=4}
CCS(=O)(=O)C(C)C(O)=O,-,R935881,M1018410,-,-,alpha-ethylsulfonyl-propionic acid,Koerner,charochkina,A5793,-,-,-,2.49,Log unit,25,?C,OC(=O)C(S(=O)(=O)CC)C,"{co2h=8, aliphatic_carboxylic_acid=8}"
CC(C)S(=O)(=O)C(C)C(O)=O,-,R935882,M1018411,-,-,alpha-iso-propylsulfonyl-propionic acid,Koerner,charochkina,A5793,-,-,-,2.52,Log unit,25,?C,OC(=O)C(S(=O)(=O)C(C)C)C,"{co2h=9, aliphatic_carboxylic_acid=9}"
[NH3+]C(CCCC(F)(F)F)C(O)=O,-,R935883,M751402,-,-,"epsilon,epsilon,epsilon-trifluoro-norleucine",Koerner,charochkina,A5793,-,-,-,2.164,Log unit,25,?C,OC(=O)C(CCCC(F)(F)F)[NH3+],"{co2h=11, aliphatic_carboxylic_acid=11}"
NC(CCCC(F)(F)F)C([O-])=O,-,R935884,M751402,-,-,"epsilon,epsilon,epsilon-trifluoro-norleucine",Koerner,charochkina,A5793,-,-,-,9.5,Log unit,25,?C,NC(CCCC(F)(F)F)C(=O)[O-],{nr2=8}
CC(CC([NH3+])C(O)=O)C(F)(F)F,-,R935885,M751621,-,-,"delta,delta,delta-trifluoro-leucine",Koerner,charochkina,A5793,-,-,-,2.045,Log unit,25,?C,OC(=O)C(CC(C(F)(F)F)C)[NH3+],"{co2h=11, aliphatic_carboxylic_acid=11}"
CC(CC(N)C([O-])=O)C(F)(F)F,-,R935886,M751621,-,-,"delta,delta,delta-trifluoro-leucine",Koerner,charochkina,A5793,-,-,-,8.9,Log unit,25,?C,NC(CC(C(F)(F)F)C)C(=O)[O-],{nr2=8}
[NH3+]C(CCC(F)(F)F)C(O)=O,-,R935887,M1034168,-,-,"delta,delta,delta-trifluoro-norvaline",Koerner,charochkina,A5793,-,-,-,2.042,Log unit,25,?C,OC(=O)C(CCC(F)(F)F)[NH3+],"{co2h=10, aliphatic_carboxylic_acid=10}"
NC(CCC(F)(F)F)C([O-])=O,-,R935888,M1034168,-,-,"delta,delta,delta-trifluoro-norvaline",Koerner,charochkina,A5793,-,-,-,8.9,Log unit,25,?C,NC(CCC(F)(F)F)C(=O)[O-],{nr2=7}