"SMILES","CASRN","RECORDID","MOLECULEID","EXTERNALID","N","NAME","NAME","INTRODUCER","MODIFIER","ARTICLEID","PUBMEDID","PAGE","TABLE","pKa (smiles as ob. cond.) {measured}","UNIT {pKa (smiles as ob. cond.)}","pKa (smiles as ob. cond.) {measured, converted}","UNIT {pKa (smiles as ob. cond.)}","Ionizable centre (smiles)","IC group detected","AtomNR of IC","groupsAndICs","IC smiles given","IC group given","Temperature","UNIT {Temperature}","MultiGroupDetection","COMMENTS","INCHI_KEY"
"OC1=C(C=C(C2=C1N=CC=C2)S([O-])(=O)=O)N=NC1=CC=CC=C1","-","R946519","M1106914","-","-","8-hydroxy-7-phenylazo-5-sulphoquinoline","-","Koerner","charochkina","A5793","-","-","-","3.34","Log unit","3.34","Log unit","n1c2c(c(S(=O)(=O)[O-])cc(c2O)N=Nc2ccccc2)ccc1","22","","{n=[22], oh=[8]}","S(=O)(=O)([O-1])-c(cc(c1O)N=N-c(ccc2)cc2)c(ccc3)c1n3","n","25.0","?C","","-","ALLVQAUCOIUTQK-UHFFFAOYSA"
"OC1=CC=C(C2=C1N=CC=C2)S([O-])(=O)=O","-","R946520","M17753","-","-","8-hydroxy-5-sulphoquinoline","-","Koerner","charochkina","A5793","-","-","-","8.78","Log unit","8.78","Log unit","Oc1ccc(S(=O)(=O)[O-])c2cccnc12","8","","{n=[14], oh=[8]}","S(=O)(=O)([O-1])-c(ccc1O)c(ccc2)c1n2","oh","25.0","?C","","-","LGDFHDKSYGVKDC-UHFFFAOYSA"
"OC1=C(C=CC2=C1N=CC=C2)C(F)(F)F","-","R946521","M1106915","-","-","8-hydroxy-7-trifluoromethylquinoline","-","Koerner","charochkina","A5793","-","-","-","2.4","Log unit","2.4","Log unit","n1cccc2c1c(O)c(cc2)C(F)(F)F","0","","{n=[0], oh=[6]}","n(ccc1)c(c(O)c(c2)C(F)(F)F)c1c2","n","25.0","?C","","-","WFJZHTCFMJRPKG-UHFFFAOYSA"
"OC1=C(C=CC2=C1N=CC=C2)C(F)(F)F","-","R946522","M1106915","-","-","8-hydroxy-7-trifluoromethylquinoline","-","Koerner","charochkina","A5793","-","-","-","9.1","Log unit","9.1","Log unit","Oc1c2ncccc2ccc1C(F)(F)F","6","","{n=[0], oh=[6]}","n(ccc1)c(c(O)c(c2)C(F)(F)F)c1c2","oh","25.0","?C","","-","WFJZHTCFMJRPKG-UHFFFAOYSA"
"SC1CCC(I)C2CCC[NH2+]C12","-","R946523","M1107312","-","-","5-iodo-8-mercaptoquinoline","-","Koerner","charochkina","A5793","-","-","-","1.34","Log unit","1.34","Log unit","SC1[CH][CH]C(I)C2[CH][CH][CH][NH2+]C12","5","","{sh=[5]}","I-c(ccc1S)c(ccc2)c1[n+1]2","sh","25.0","?C","","-","CZWAEGSLKMXALB-UHFFFAOYSA"
"[S-]C1=CC=C(I)C2=C1N=CC=C2","-","R946524","M1106916","-","-","5-iodo-8-mercaptoquinoline","-","Koerner","charochkina","A5793","-","-","-","7.48","Log unit","7.48","Log unit","n1c2c(c(I)ccc2[S-])ccc1","11","","{n=[11]}","I-c(ccc1[S-1])c(ccc2)c1n2","n","25.0","?C","","-","DMKICDKLHDSHIJ-UHFFFAOYSA"
"SC1CCC2CCCCC2[NH2+]1","-","R946525","M1107313","-","-","2-Mercaptoquinoline","-","Koerner","charochkina","A5793","-","-","-","-1.44","Log unit","-1.44","Log unit","SC1[NH2+]C2[CH][CH][CH][CH]C2[CH][CH]1","0","","{sh=[0]}","S-c([n+1]c(ccc1)c2c1)cc2","sh","25.0","?C","","-","PKJOASMVFGFHHL-UHFFFAOYSA"
"[S-]C1=NC2=C(C=CC=C2)C=C1","-","R946526","M27217","-","-","2-Mercaptoquinoline","-","Koerner","charochkina","A5793","-","-","-","10.25","Log unit","10.25","Log unit","n1c([S-])ccc2c1cccc2","2","","{n=[2]}","[S-1]-c(nc(ccc1)c2c1)cc2","n","25.0","?C","","-","KXZSVYHFYHTNBI-UHFFFAOYSA"
"[S-]C1=CN=C2C=CC=CC2=C1","-","R946527","M1106917","-","-","3-mercaptoquinoline","-","Koerner","charochkina","A5793","-","-","-","6.17","Log unit","6.17","Log unit","n1cc([S-])cc2c1cccc2","3","","{n=[3]}","[S-1]-c(cnc1cc2)cc1cc2","n","25.0","?C","","-","ZPKXXXUAUKOZJA-UHFFFAOYSA"
"CCCC1=C(C)N=C(N)N=C1C","-","R946328","M1106829","-","-","2-amino-4,6-dimethyl-5-propylpyrimidine","-","Koerner","charochkina","A5793","-","-","-","5.12","Log unit","5.12","Log unit","n1c(nc(C)c(c1C)CCC)N","0","","{n=[0, 2], nr2=[5]}","n(c(nc1C)N)c(C)c1CCC","n","25.0","?C","true","-","RRFRPXRECQBZSB-UHFFFAOYSA"
"NC1=NC(=CC(=N1)C1=CC=CC=C1)C1=CC=CC=C1","-","R946329","M414139","-","-","2-amino-4,6-diphenylpyrimidine","-","Koerner","charochkina","A5793","-","-","-","3.44","Log unit","3.44","Log unit","n1c(c2ccccc2)cc(nc1N)c1ccccc1","5","","{n=[5, 7], nr2=[8]}","c(ccc1c(nc(n2)N)cc2c(ccc3)cc3)cc1","n","25.0","?C","true","-","KZUCBEYDRUCBCS-UHFFFAOYSA"
"NC1=NC=C(I)C=N1","-","R946330","M748491","-","-","2-Amino-5-iodopyrimidine","-","Koerner","charochkina","A5793","-","-","-","1.9","Log unit","1.9","Log unit","n1cc(I)cnc1N","3","","{n=[3, 7], nr2=[5]}","I-c(cnc1N)cn1","n","25.0","?C","true","-","HAFKCGZQRIIADX-UHFFFAOYSA"
"CC1=CC=C(C=C1)C1=CN=C(N)N=C1","-","R946331","M1106830","-","-","2-amino-5-(p-tolyl)pyrimidine","-","Koerner","charochkina","A5793","-","-","-","3.14","Log unit","3.14","Log unit","n1cc(c2ccc(cc2)C)cnc1N","6","","{n=[6, 10], nr2=[8]}","c(cc(c1)c(cnc2N)cn2)c(c1)C","n","25.0","?C","true","-","MROOHWCFDJDKDP-UHFFFAOYSA"
"CCOC1=NC=C(Br)C=N1","-","R946332","M1106831","-","-","5-bromo-2-ethoxypyrimidine","-","Koerner","charochkina","A5793","-","-","-","-0.72","Log unit","-0.72","Log unit","n1cc(Br)cnc1OCC","3","","{n=[3, 9]}","Br-c(cnc1OCC)cn1","n","25.0","?C","true","-","GNSREVHIXMTHFA-UHFFFAOYSA"
"[O-]C1=NC=C(Br)C=N1","-","R946333","M86418","-","-","5-Bromo-2-hydroxypyrimidine","-","Koerner","charochkina","A5793","-","-","-","7.06","Log unit","7.06","Log unit","n1cc(Br)cnc1[O-]","3","","{n=[3, 7]}","Br-c(cnc1[O-1])cn1","n","25.0","?C","true","-","VTUDATOSQGYWML-UHFFFAOYSA"
"[S-]C1=NC=C(Br)C=N1","-","R946334","M1106834","-","-","5-bromo-2-mercaptopyrimidine","-","Koerner","charochkina","A5793","-","-","-","5.22","Log unit","5.22","Log unit","n1cc(Br)cnc1[S-]","3","","{n=[3, 7]}","Br-c(cnc1[S-1])cn1","n","25.0","?C","true","-","WHXPLARVWVJQDE-UHFFFAOYSA"
"CCC(C)OC1=NC=CC=N1","-","R946335","M1106835","-","-","2-sec-butoxypyrimidine","-","Koerner","charochkina","A5793","-","-","-","1.33","Log unit","1.33","Log unit","n1cccnc1OC(C)CC","0","","{n=[0, 5]}","n(ccc1)c(n1)OC(C)CC","n","25.0","?C","true","-","ANQPXMRNSINILE-UHFFFAOYSA"
"[O-]C(=O)C1=NC=CC=N1","-","R946336","M1106836","-","-","2-carboxypyrimidine","-","Koerner","charochkina","A5793","-","-","-","2.5","Log unit","2.5","Log unit","n1cccnc1C(=O)[O-]","0","","{n=[0, 5]}","n(ccc1)c(n1)C(=O)[O-1]","n","25.0","?C","true","-","ZFCHNZDUMIOWFV-UHFFFAOYSA"
"ClC1=NC=CC=N1","-","R946337","M25657","-","-","2-Chloropyrimidine","-","Koerner","charochkina","A5793","-","-","-","-2.2","Log unit","-2.2","Log unit","n1c(Cl)nccc1","0","","{n=[0, 3]}","n1c(Cl)nccc1","n","25.0","?C","true","-","UNCQVRBWJWWJBF-UHFFFAOYSA"
"NC1=CN=C(N)N=C1","-","R946338","M1106837","-","-","2,5-diaminopyrimidine","-","Koerner","charochkina","A5793","-","-","-","3.63","Log unit","3.63","Log unit","n1cc(cnc1N)N","0","","{n=[0, 6], nr2=[4, 7]}","n(cc(c1)N)c(n1)N","n","25.0","?C","true","-","DNACGYGXUFTEHO-UHFFFAOYSA"
"CC1=CC(C)=NC=N1","-","R946339","M6430","-","-","4,6-Dimethylpyrimidine","-","Koerner","charochkina","A5793","-","-","-","2.4","Log unit","2.4","Log unit","n1cnc(C)cc1C","0","","{n=[0, 2]}","n(cnc1C)c(c1)C","n","25.0","?C","true","-","LSBIUXKNVUBKRI-UHFFFAOYSA"
"[O-]C1=NC=CC=N1","-","R946340","M11958","-","-","2-Hydroxypyrimidine","-","Koerner","charochkina","A5793","-","-","-","9.2","Log unit","9.2","Log unit","n1c([O-])nccc1","2","","{n=[2, 5]}","[O-1]-c(ncc1)nc1","n","25.0","?C","true","-","VTGOHKSTWXHQJK-UHFFFAOYSA"
"OC1=CN=CN=C1","-","R946341","M1106841","-","-","5-hydroxypyrimidine","-","Koerner","charochkina","A5793","-","-","-","6.8","Log unit","6.8","Log unit","Oc1cncnc1","0","","{n=[3, 6], oh=[0]}","O-c(cnc1)cn1","oh","25.0","?C","","-","LTXJLQINBYSQFU-UHFFFAOYSA"
"OC1=CN=CN=C1","-","R946342","M1106841","-","-","5-hydroxypyrimidine","-","Koerner","charochkina","A5793","-","-","-","1.55","Log unit","1.55","Log unit","n1cc(O)cnc1","3","","{n=[3, 6], oh=[0]}","O-c(cnc1)cn1","n","25.0","?C","true","-","LTXJLQINBYSQFU-UHFFFAOYSA"
"COC1=NC(C)=CC([O-])=N1","-","R946343","M1106842","-","-","4-hydroxy-2-methoxy-6-methylpyrimidine","-","Koerner","charochkina","A5793","-","-","-","8.5","Log unit","8.5","Log unit","n1c([O-])cc(nc1OC)C","2","","{n=[2, 4]}","[O-1]-c(nc(n1)OC)cc1C","n","25.0","?C","true","-","CRYUGFDHGVCIJW-UHFFFAOYSA"
"CC1=NC([O-])=NC=C1","-","R946344","M33502","-","-","2-hydroxy-4-methylpyrimidine","-","Koerner","charochkina","A5793","-","-","-","9.9","Log unit","9.9","Log unit","n1c([O-])nc(cc1)C","2","","{n=[2, 5]}","[O-1]-c(ncc1)nc1C","n","25.0","?C","true","-","AHHHDTLXONDKQF-UHFFFAOYSA"
"NNC1=NC=CC=N1","-","R946345","M1106844","-","-","2-hydrazinopyrimidine","-","Koerner","charochkina","A5793","-","-","-","4.25","Log unit","4.25","Log unit","n1cccnc1NN","0","","{n=[0, 5], nr2=[6, 7]}","n(ccc1)c(n1)NN","n","25.0","?C","true","-","QDGHXQFTWKRQTG-UHFFFAOYSA"
"CC1=CC(C)=NC([O-])=N1","-","R946346","M65384","-","-","2-Hydroxy-4,6-dimethylpyrimidine","-","Koerner","charochkina","A5793","-","-","-","10.0","Log unit","10.0","Log unit","n1c([O-])nc(cc1C)C","2","","{n=[2, 6]}","[O-1]-c(nc(c1)C)nc1C","n","25.0","?C","true","-","WHEQVHAIRSPYDK-UHFFFAOYSA"
"OC1CC[NH2+]C([S-])[NH2+]1","-","R946347","M1526","-","-","4-Hydroxy-2-mercaptopyrimidine","-","Koerner","charochkina","A5793","-","-","-","-4.14","Log unit","-4.14","Log unit","OC1[NH2+]C([S-])[NH2+][CH][CH]1","7","","{oh=[7]}","[S-1]-c([n+1]cc1)[n+1]c1O","oh","25.0","?C","","-","COMGKWWLRKWLKP-UHFFFAOYSA"
"OC1CC[NH2+]C(S)[NH2+]1","-","R946348","M1526","-","-","4-Hydroxy-2-mercaptopyrimidine","-","Koerner","charochkina","A5793","-","-","-","-6.64","Log unit","-6.64","Log unit","SC1[NH2+][CH][CH]C([NH2+]1)O","0","","{sh=[0], oh=[7]}","S-c([n+1]cc1)[n+1]c1O","sh","25.0","?C","","-","COMGKWWLRKWLKP-UHFFFAOYSA"
"CCCC1CC([O-])[NH2+]C(S)[NH2+]1","-","R946349","M1107296","-","-","4-hydroxy-2-mercapto-6-n-propylpyrimidine","-","Koerner","charochkina","A5793","-","-","-","-6.54","Log unit","-6.54","Log unit","SC1[NH2+]C([O-])[CH]C([NH2+]1)CCC","0","","{sh=[0]}","S-c([n+1]c([O-1])c1)[n+1]c1CCC","sh","25.0","?C","","-","YXILSFLPZRMYLO-UHFFFAOYSA"
"CCCC1CC(O)[NH2+]C([S-])[NH2+]1","-","R946350","M1107297","-","-","4-hydroxy-2-mercapto-6-n-propylpyrimidine","-","Koerner","charochkina","A5793","-","-","-","-4.22","Log unit","-4.22","Log unit","OC1[NH2+]C([S-])[NH2+]C([CH]1)CCC","4","","{oh=[4]}","[S-1]-c([n+1]c(O)c1)[n+1]c1CCC","oh","25.0","?C","","-","FPMTVAGNRSKBKO-UHFFFAOYSA"
"COC1=CC=C(C=C1)C1=CN=C([O-])N=C1","-","R946351","M1106848","-","-","2-hydroxy-5-p-methoxyphenylpyrimidine","-","Koerner","charochkina","A5793","-","-","-","8.56","Log unit","8.56","Log unit","n1c([O-])ncc(c1)c1ccc(OC)cc1","2","","{n=[2, 13]}","[O-1]-c(ncc1c(ccc2OC)cc2)nc1","n","25.0","?C","true","-","CAFYKQKEQOXYRP-UHFFFAOYSA"
"CC1=CN=CN=C1[O-]","-","R946352","M1106850","-","-","4-hydroxy-5-methylpyrimidine","-","Koerner","charochkina","A5793","-","-","-","8.87","Log unit","8.87","Log unit","n1c([O-])c(cnc1)C","2","","{n=[2, 4]}","[O-1]-c(ncn1)c(c1)C","n","25.0","?C","true","-","SHLJOANTPJWIHS-UHFFFAOYSA"
"[O-]C1=NC=C(C=N1)C1=CC=C(C=C1)N(=O)=O","-","R946353","M1106852","-","-","2-hydroxy-5-p-nitrophenylpyrimidine","-","Koerner","charochkina","A5793","-","-","-","7.87","Log unit","7.87","Log unit","n1c([O-])ncc(c2ccc(N(=O)=O)cc2)c1","0","","{n=[0, 3], nr2=[10]}","n1c([O-1])ncc(c2ccc(N(=O)=O)cc2)c1","n","25.0","?C","true","-","DCRRCFACRJTHMV-UHFFFAOYSA"
"CC1=CC=C(C=C1)C1=CN=C([O-])N=C1","-","R946354","M1106854","-","-","2-hydroxy-5-p-tolylpyrimidine","-","Koerner","charochkina","A5793","-","-","-","8.44","Log unit","8.44","Log unit","n1cc(c2ccc(cc2)C)cnc1[O-]","6","","{n=[6, 10]}","c(cc(c1)-c(cnc2[O-1])cn2)c(c1)C","n","25.0","?C","true","-","FMONARIKHZLWQT-UHFFFAOYSA"
"CC1=NC([O-])=NC(C)=C1C","-","R946355","M1106856","-","-","2-hydroxy-4,5,6-trimethylpyrimidine","-","Koerner","charochkina","A5793","-","-","-","10.55","Log unit","10.55","Log unit","n1c([O-])nc(c(c1C)C)C","2","","{n=[2, 7]}","[O-1]-c(nc(C)c1C)nc1C","n","25.0","?C","true","-","ZRQPOQRDNYJQNB-UHFFFAOYSA"
"[S-]C1=NC=CC=N1","-","R946356","M69517","-","-","2-Mercaptopyrimidine","-","Koerner","charochkina","A5793","-","-","-","6.9","Log unit","6.9","Log unit","n1c([S-])nccc1","2","","{n=[2, 5]}","[S-1]-c(ncc1)nc1","n","25.0","?C","true","-","HBCQSNAFLVXVAY-UHFFFAOYSA"
"SC1[NH2+]CCC[NH2+]1","-","R946357","M1106858","-","-","2-Mercaptopyrimidine","-","Koerner","charochkina","A5793","-","-","-","-8.3","Log unit","-8.3","Log unit","SC1[NH2+][CH][CH][CH][NH2+]1","0","","{sh=[0]}","S-c([n+1]cc1)[n+1]c1","sh","25.0","?C","","-","ALZREFNEACSODW-UHFFFAOYSA"
"CC1=CC(C)=NC([S-])=N1","-","R946358","M35545","-","-","2-Mercapto-4,6-dimethylpyrimidine","-","Koerner","charochkina","A5793","-","-","-","8.2","Log unit","8.2","Log unit","n1c([S-])nc(cc1C)C","2","","{n=[2, 6]}","[S-1]-c(nc(c1)C)nc1C","n","25.0","?C","true","-","RAFAYWADRVMWFA-UHFFFAOYSA"
"COC1CC(S)[NH2+]CN1","-","R946359","M1107298","-","-","4-mercapto-6-methoxypyrimidine","-","Koerner","charochkina","A5793","-","-","-","-1.98","Log unit","-1.98","Log unit","SC1[NH2+][CH]NC([CH]1)OC","0","","{sh=[0]}","S-c([n+1]cn1)cc1OC","sh","25.0","?C","","-","CDGJBXIOJHVUGF-UHFFFAOYSA"
"COC1NC[NH2+]C(S)C1C","-","R946360","M1107299","-","-","4-mercapto-6-methoxy-5-methylpyrimidine","-","Koerner","charochkina","A5793","-","-","-","-1.59","Log unit","-1.59","Log unit","SC1[NH2+][CH]NC(C1C)OC","0","","{sh=[0]}","S-c([n+1]cn1)c(C)c1OC","sh","25.0","?C","","-","TUUYIIMMMBRSKO-UHFFFAOYSA"
"COC1=NC=CC=N1","-","R946361","M24082","-","-","2-Methoxypyrimidine","-","Koerner","charochkina","A5793","-","-","-","0.75","Log unit","0.75","Log unit","n1cccnc1OC","0","","{n=[0, 5]}","n(ccc1)c(n1)OC","n","25.0","?C","true","-","YLZYSVYZMDJYOT-UHFFFAOYSA"
"CSC1=NC=CC=N1","-","R946362","M23737","-","-","2-Methylthiopyrimidine","-","Koerner","charochkina","A5793","-","-","-","0.29","Log unit","0.29","Log unit","n1c(SC)nccc1","3","","{n=[3, 6]}","S(C)-c(ncc1)nc1","n","25.0","?C","true","-","FOEMIZSFFWGXHX-UHFFFAOYSA"
"CC1=NC=C(C=N1)N(=O)=O","-","R946363","M1106862","-","-","2-methyl-5-nitropyrimidine","-","Koerner","charochkina","A5793","-","-","-","-1.49","Log unit","-1.49","Log unit","n1cc(cnc1C)N(=O)=O","0","","{n=[0, 8], nr2=[4]}","n(cc(c1)N(=O)=O)c(n1)C","n","25.0","?C","true","-","NLGWYOYUTYUEQT-UHFFFAOYSA"
"CSC1=NC=C(C=N1)N(=O)=O","-","R946364","M1106863","-","-","2-methylthio-5-nitropyrimidine","-","Koerner","charochkina","A5793","-","-","-","-2.95","Log unit","-2.95","Log unit","n1c(SC)ncc(c1)N(=O)=O","3","","{n=[3, 9], nr2=[6]}","S(C)-c(ncc1N(=O)=O)nc1","n","25.0","?C","true","-","APNBIRVIHOWZRZ-UHFFFAOYSA"
"CCCOC1=NC=CC=N1","-","R946365","M1106864","-","-","2-propoxypyrimidine","-","Koerner","charochkina","A5793","-","-","-","1.04","Log unit","1.04","Log unit","n1cccnc1OCCC","0","","{n=[0, 5]}","n(ccc1)c(n1)OCCC","n","25.0","?C","true","-","WNNUCBYVVRCGSE-UHFFFAOYSA"
"NC1=CC(N)=NC(N)=N1","-","R946366","M24311","-","-","2,4,6-Triaminopyrimidine","-","Koerner","charochkina","A5793","-","-","-","6.5","Log unit","6.5","Log unit","n1c(nc(N)cc1N)N","0","","{n=[0, 2], nr2=[4, 5, 7]}","n(c(nc1N)N)c(N)c1","n","25.0","?C","true","-","JTTIOYHBNXDJOD-UHFFFAOYSA"
"NC1=NC(N)=C(SC2=CC=CC=C2)C(N)=N1","-","R946367","M1106865","-","-","2,4,6-triamino-5-phenylthiopyrimidine","-","Koerner","charochkina","A5793","-","-","-","5.36","Log unit","5.36","Log unit","n1c(c(Sc2ccccc2)c(nc1N)N)N","9","","{n=[9, 14], nr2=[11, 12, 15]}","c(ccc1)c(c1)S-c(c(nc2N)N)c(n2)N","n","25.0","?C","true","-","XWTLIBOMLSYMOA-UHFFFAOYSA"
"NC1=NC(N)=NC(N)=N1","-","R946368","M18673","-","-","2,4,6-Triamino-1,3,5-triazine","-","Koerner","charochkina","A5793","-","-","-","4.8","Log unit","4.8","Log unit","n1c(nc(N)nc1N)N","0","","{n=[0, 2, 7], nr2=[4, 5, 8]}","n(c(nc1N)N)c(n1)N","n","25.0","?C","true","-","JDSHMPZPIAZGSV-UHFFFAOYSA"
"CCNC1=NC(NCC)=NC(NCC)=N1","-","R946369","M116486","-","-","2,4,6-trisethylamino-1,3,5-triazine","-","Koerner","charochkina","A5793","-","-","-","5.4","Log unit","5.4","Log unit","n1c(nc(NCC)nc1NCC)NCC","0","","{n=[0, 2, 11], nr2=[4, 7, 12]}","n(c(nc1NCC)NCC)c(n1)NCC","n","25.0","?C","true","-","LNCCBHFAHILMCT-UHFFFAOYSA"
"OCCCNC1=NC(NCCCO)=NC(NCCCO)=N1","-","R946370","M1106866","-","-","2,4,6-tris(3-hydroxy)propylamino-1,3,5-triazine","-","Koerner","charochkina","A5793","-","-","-","5.18","Log unit","5.18","Log unit","n1c(NCCCO)nc(NCCCO)nc1NCCCO","0","","{n=[0, 7, 14], nr2=[2, 9, 16], oh=[6, 13, 20]}","n1c(NCCCO)nc(NCCCO)nc1NCCCO","n","25.0","?C","true","-","MZHBRRRMAOTHNT-UHFFFAOYSA"
"COCNC1=NC(NCOC)=NC(NCOC)=N1","-","R946371","M71221","-","-","2,4,6-tris(methoxy)methylamino-1,3,5-triazine","-","Koerner","charochkina","A5793","-","-","-","3.2","Log unit","3.2","Log unit","n1c(NCOC)nc(NCOC)nc1NCOC","0","","{n=[0, 6, 12], nr2=[2, 8, 14]}","n1c(NCOC)nc(NCOC)nc1NCOC","n","25.0","?C","true","-","CZFJRMBYCKMYHU-UHFFFAOYSA"
"C1=CC=C2C=NC=CC2=C1","-","R946372","M536","-","-","isoquinoline","-","Koerner","charochkina","A5793","-","-","-","5.4","Log unit","5.4","Log unit","n1cc2ccccc2cc1","9","","{n=[9]}","c(ccc1cc2)cc1cn2","n","25.0","?C","","-","AWJUIBRHMBBTKR-UHFFFAOYSA"
"NC1=NC=CC2=CC=CC=C12","-","R946373","M25321","-","-","1-Aminoisoquinoline","-","Koerner","charochkina","A5793","-","-","-","7.48","Log unit","7.48","Log unit","n1c(c2ccccc2cc1)N","5","","{n=[5], nr2=[6]}","c(ccc1c(n2)N)cc1cc2","n","25.0","?C","","-","OSILBMSORKFRTB-UHFFFAOYSA"
"NC1=CN=CC2=CC=CC=C12","-","R946374","M81301","-","-","4-amino-isoquinoline","-","Koerner","charochkina","A5793","-","-","-","6.26","Log unit","6.26","Log unit","n1cc2ccccc2c(c1)N","10","","{n=[10], nr2=[6]}","c(ccc1c(c2)N)cc1cn2","n","25.0","?C","","-","ISIUXVGHQFJYHM-UHFFFAOYSA"
"NC1=CC=CC2=CN=CC=C12","-","R946375","M24678","-","-","5-amino-isoquinoline","-","Koerner","charochkina","A5793","-","-","-","5.57","Log unit","5.57","Log unit","n1ccc2c(cccc2c1)N","0","","{n=[0], nr2=[6]}","n(ccc1c(c2)N)cc1cc2","n","25.0","?C","","-","DTVYNUOOZIKEEX-UHFFFAOYSA"
"NC1=CC2=C(C=C1)C=NC=C2","-","R946376","M172460","-","-","6-amino-isoquinoline","-","Koerner","charochkina","A5793","-","-","-","7.16","Log unit","7.16","Log unit","n1cc2ccc(cc2cc1)N","4","","{n=[4], nr2=[10]}","c(cc(cnc1)c2c1)c(c2)N","n","25.0","?C","","-","NGFCTYXFMDWFRQ-UHFFFAOYSA"
"NC1=CC2=C(C=CN=C2)C=C1","-","R946377","M1106867","-","-","7-amino-isoquinoline","-","Koerner","charochkina","A5793","-","-","-","6.19","Log unit","6.19","Log unit","n1ccc2ccc(cc2c1)N","5","","{n=[5], nr2=[10]}","c(cc(ccn1)c2c1)c(c2)N","n","25.0","?C","","-","DRGUQIQEUWFBDE-UHFFFAOYSA"
"NC1=CC2=CC=CC=C2C=N1","-","R946378","M203715","-","-","3-aminoisquinoline","-","Koerner","charochkina","A5793","-","-","-","5.03","Log unit","5.03","Log unit","n1cc2ccccc2cc1N","5","","{n=[5], nr2=[10]}","c(ccc1cn2)cc1cc2N","n","25.0","?C","","-","VYCKDIRCVDCQAE-UHFFFAOYSA"
"NC1=CC=CC2=CC=NC=C12","-","R946379","M619852","-","-","8-aminoisoquinoline","-","Koerner","charochkina","A5793","-","-","-","6.04","Log unit","6.04","Log unit","n1ccc2cccc(c2c1)N","0","","{n=[0], nr2=[10]}","n(ccc1cc2)cc1c(c2)N","n","25.0","?C","","-","GUSYANXQYUJOBH-UHFFFAOYSA"
"BrC1=CN=CC2=C1C=CC=C2","-","R946380","M25322","-","-","4-Bromoisoquinoline","-","Koerner","charochkina","A5793","-","-","-","3.31","Log unit","3.31","Log unit","n1cc(Br)c2ccccc2c1","3","","{n=[3]}","Br-c(cnc1)c(ccc2)c1c2","n","25.0","?C","","-","SCRBSGZBTHKAHU-UHFFFAOYSA"
"[O-]C1=CC2=C(C=CC=C2)C=N1","-","R946381","M1106868","-","-","3-hydroxyisoquinoline","-","Koerner","charochkina","A5793","-","-","-","9.62","Log unit","9.62","Log unit","n1cc2ccccc2cc1[O-]","1","","{n=[1]}","c1nc([O-1])cc2ccccc12","n","25.0","?C","","-","GYPOFOQUZZUVQL-UHFFFAOYSA"
"OC1CC2CCCCC2C[NH2+]1","-","R946382","M1107300","-","-","3-hydroxyisoquinoline","-","Koerner","charochkina","A5793","-","-","-","2.18","Log unit","2.18","Log unit","OC1[NH2+][CH]C2[CH][CH][CH][CH]C2[CH]1","3","","{oh=[3]}","c1[n+1]c(O)cc2ccccc12","oh","25.0","?C","","-","PDZCIQLBLXCOFM-UHFFFAOYSA"
"OC1=C2C=CC=CC2=CN=C1","-","R946383","M1106869","-","-","4-hydroxyisoquinoline","-","Koerner","charochkina","A5793","-","-","-","8.7","Log unit","8.7","Log unit","Oc1cncc2c1cccc2","3","","{n=[0], oh=[3]}","n(cc(O)c1cc2)cc1cc2","oh","25.0","?C","","-","DXTUTXYCHFWRQC-UHFFFAOYSA"