Smiles,CASRN,Record ID,Molecule ID,External ID,N,Name,Introducer,Modifer,Article ID,PUBMED ID,PAGE,TABLE,pKa,pKa Unit,Temperature,Temperature Unit,Ionizable center smiles,IC group
OC1=CC(Cl)=CC(Cl)=C1,591-35-5,R1166066,M11881,-,-,"3,5-Dichlorophenol",Koerner,Koerner,A5912,-,-,-,8.18,Log unit,,-,Oc1cc(cc(Cl)c1)Cl,
NC1=CC(O)=CC=C1,591-27-5,R1166067,M1697,-,-,3-AMINO-PHENOL,Koerner,Koerner,A5912,-,-,-,9.86,Log unit,20,?C,Oc1cc(N)ccc1,
OC1=CC=CC(Br)=C1,591-20-8,R1166068,M6891,-,-,3-Bromophenol,Koerner,Koerner,A5912,-,-,-,9.031,Log unit,25,?C,Oc1cc(Br)ccc1,
OC1=CC(Cl)=C(Cl)C(Cl)=C1,609-19-8,R1166069,M22362,-,-,"3,4,5-TRICHLOROPHENOL",Koerner,Koerner,A5912,-,-,-,7.84,Log unit,25,?C,Oc1cc(c(Cl)c(c1)Cl)Cl,
CC(C)C1=CC=CC(O)=C1,618-45-1,R1166070,M11780,-,-,3-Isopropylphenol,Koerner,Koerner,A5912,-,-,-,10.16,Log unit,20,?C,Oc1cc(ccc1)C(C)C,
CCC1=CC=CC(O)=C1,620-17-7,R1166071,M3927,-,-,3-ethylphenol,Koerner,Koerner,A5912,-,-,-,9.9,Log unit,,-,Oc1cc(ccc1)CC,
CCOC1=CC(O)=CC=C1,621-34-1,R1166072,M11535,-,-,3-Ethoxyphenol,Koerner,Koerner,A5912,-,-,-,9.65,Log unit,25,?C,Oc1cc(OCC)ccc1,
CCOC1=CC=C(O)C=C1,622-62-8,R1166073,M6239,-,-,4-Ethoxyphenol,Koerner,Koerner,A5912,-,-,-,10.13,Log unit,25,?C,Oc1ccc(OCC)cc1,
OC1=CC(Br)=CC(Br)=C1,626-41-5,R1166074,M22827,-,-,"3,5-DIBROMOPHENOL",Koerner,Koerner,A5912,-,-,-,8.06,Log unit,25,?C,Oc1cc(cc(Br)c1)Br,
OC1=CC=CC(I)=C1,626-02-8,R1166075,M2995,-,-,3-iodophenol,Koerner,Koerner,A5912,-,-,-,9.033,Log unit,25,?C,Oc1cc(I)ccc1,
CCCC1=CC=C(O)C=C1,645-56-7,R1166076,M5671,-,-,4-propylphenol,Koerner,Koerner,A5912,-,-,-,10.34,Log unit,20,?C,Oc1ccc(cc1)CCC,
CCC1=CC(C)=CC(O)=C1,698-71-5,R1166077,M23362,-,-,3-ETHYL-5-METHYLPHENOL,Koerner,Koerner,A5912,-,-,-,10.1,Log unit,28,?C,Oc1cc(cc(c1)C)CC,
OC1=CC=C(C=C1)C#N,767-00-0,R1166078,M1680,-,-,4-cyanophenol,Koerner,Koerner,A5912,-,-,-,7.967,Log unit,25,?C,Oc1ccc(C#N)cc1,
OC1=CC=CC(=C1)C#N,873-62-1,R1166079,M10337,-,-,3-Cyanophenol,Koerner,Koerner,A5912,-,-,-,8.61,Log unit,25,?C,Oc1cc(C#N)ccc1,
CC1=CC2=CC3=CC=CC=C3N=C2C=C1,-,R946628,M67191,-,-,2-Methylacridine,Koerner,charochkina,A5793,-,-,-,5.74,Log unit,25,?C,n1c2ccccc2cc2c1ccc(c2)C,4
CC1=CC=CC2=CC3=CC=CC=C3N=C12,-,R946629,M56382,-,-,4-Methylacridine,Koerner,charochkina,A5793,-,-,-,5.6,Log unit,25,?C,n1c2ccccc2cc2c1c(ccc2)C,4
CNC1=C2C=CC=CC2=NC2=CC=CC=C12,-,R946630,M35642,-,-,9-methylaminoacridine,Koerner,charochkina,A5793,-,-,-,10.43,Log unit,25,?C,n1c2ccccc2c(c2c1cccc2)NC,4
C1CCC2=NC3=CC=CC=C3C=C2C1,-,R946631,M72681,-,-,"1,2,3,4-Tetrahydroacridine",Koerner,charochkina,A5793,-,-,-,6.38,Log unit,25,?C,n1c2ccccc2cc2c1CCCC2,4
[O-]S(=O)(=O)C1=CC2=CC3=C(C=CC=C3)N=C2C=C1,-,R946632,M1106953,-,-,2-sulphoacridine,Koerner,charochkina,A5793,-,-,-,4.8,Log unit,25,?C,n1c2c(cc(S(=O)(=O)[O-])cc2)cc2ccccc12,15
C1=CC=C2C(C=CC3=C2C=CC=N3)=C1,-,R946633,M3691,-,-,Benzo[f]quinoline,Koerner,charochkina,A5793,-,-,-,4.625,Log unit,25,?C,n1c2c(c3ccccc3cc2)ccc1,13
C1=CC2=C(C=C1)C1=C(C=C2)N=CC=C1,-,R946634,M3691,-,-,7-aminobenzo[f]quinoline,Koerner,charochkina,A5793,-,-,-,4.8,Log unit,25,?C,n1cccc2c1ccc1c2cccc1,13
C1=CC2=CC3=C(C=C2C=C1)N=CC=C3,-,R946635,M1003739,-,-,benzo[g]quinoline,Koerner,charochkina,A5793,-,-,-,5.01,Log unit,25,?C,n1cccc2c1cc1ccccc1c2,0
NC1=CC2=CC3=CC=CC=C3C=C2N=C1,-,R946636,M1106954,-,-,3-aminobenzo[g]quinoline,Koerner,charochkina,A5793,-,-,-,4.74,Log unit,25,?C,n1c2cc3ccccc3cc2cc(N)c1,13
C1=CC2=C(C=C1)C1=C(C=CC=N1)C=C2,-,R946637,M19791,-,-,Benzo[h]quinoline,Koerner,charochkina,A5793,-,-,-,3.725,Log unit,25,?C,n1cccc2c1c1ccccc1cc2,0
C1=CC2=C(C=C1)C1=CC=CC=C1C=N2,-,R946638,M9636,-,-,phenanthridine,Koerner,charochkina,A5793,-,-,-,4.475,Log unit,25,?C,n1cc2ccccc2c2ccccc12,5
C1=CC2=NC3=CC=CC=C3N=C2C=C1,-,R946639,M8453,-,-,Phenazine,Koerner,charochkina,A5793,-,-,-,0.9,Log unit,25,?C,n1c2ccccc2nc2c1cccc2,4
NC1=CC2=NC3=CC=CC=C3N=C2C=C1,-,R946640,M120412,-,-,2-Aminophenazine,Koerner,charochkina,A5793,-,-,-,4.71,Log unit,25,?C,n1c2ccccc2nc2c1ccc(c2)N,4
NC1=CC2=NC3=C(C=C(N)C=C3)N=C2C=C1,-,R946641,M120132,-,-,"2,7-Diaminophenazine",Koerner,charochkina,A5793,-,-,-,4.29,Log unit,25,?C,n1c2cc(ccc2nc2c1ccc(N)c2)N,6
OC1=CC=CC2=NC3=CC=CC=C3N=C12,-,R946642,M21280,-,-,1-Hydroxyphenazine,Koerner,charochkina,A5793,-,-,-,1.61,Log unit,25,?C,n1c2ccccc2nc2c1cccc2O,4
OC1=CC2=NC3=CC=CC=C3N=C2C=C1,-,R946643,M147706,-,-,2-hydroxyphenazine,Koerner,charochkina,A5793,-,-,-,2.39,Log unit,25,?C,n1c2ccccc2nc2c1ccc(c2)O,4
C1=CC2=CC3=C(C=CC4=C3C=CC=C4)N=C2C=C1,-,R946644,M19784,-,-,Benz[a]acridine,Koerner,charochkina,A5793,-,-,-,4.7,Log unit,25,?C,n1c2ccccc2cc2c1ccc1ccccc21,5
OC1=CC=C(N=NC2=NC=CC=C2)C2=C1C=CC=C2,-,R946645,M1106955,-,-,4-(2-pyridlazo)-1-naphthol,Koerner,charochkina,A5793,-,-,-,3,Log unit,25,?C,n1c(N=Nc2ccc(O)c3ccccc23)cccc1,8
OC1=C(N=NC2=NC=CC=C2)C2=C(C=CC=C2)C=C1,-,R946646,M745790,-,-,1-(2-pyridlazo)-2-naphthol,Koerner,charochkina,A5793,-,-,-,2.9,Log unit,25,?C,n1c(N=Nc2c(O)ccc3ccccc23)cccc1,0
OC1C(Cl)CC(CC1[N+]([O-])=O)[N+]([O-])=O,946-31-6,R1150470,M740622,-,-,"NSC3 2-chloro-4,6-bis(hydroxy(oxido)amino)phenol",Koerner,Koerner,A5912,-,-,-,2.1,Log unit,,-,OC1C(CC(CC1[N+](=O)[O-])[N+](=O)[O-])Cl,phenol
OC1CCC(CC1C=O)[N+]([O-])=O,97-51-8,R1150471,M1154392,-,-,NSC881 2-hydroxy-5-(hydroxy(oxido)amino)benzaldehyde,Koerner,Koerner,A5912,-,-,-,5.51,Log unit,,-,OC1CCC(CC1C=O)[N+](=O)[O-],phenol
OC1CCC(CC1Cl)[N+]([O-])=O,619-08-9,R1150472,M740612,-,-,NSC1316 2-chloro-4-(hydroxy(oxido)amino)phenol,Koerner,Koerner,A5912,-,-,-,5.45,Log unit,,-,OC1C(CC([N+](=O)[O-])CC1)Cl,phenol
OC1CCC(CC1)[N+]([O-])=O,100-02-7,R1150473,M740504,-,-,NSC1317 4-(hydroxy(oxido)amino)phenol,Koerner,Koerner,A5912,-,-,-,7.15,Log unit,,-,OC1CCC([N+](=O)[O-])CC1,phenol
OC1CCC(CC1[N+]([O-])=O)[N+]([O-])=O,51-28-5,R1150474,M740562,-,-,"NSC1532 2,4-bis(hydroxy(oxido)amino)phenol",Koerner,Koerner,A5912,-,-,-,4.09,Log unit,,-,OC1CCC(CC1[N+](=O)[O-])[N+](=O)[O-],phenol
OC1CCCCC1C1CCCCC1,90-43-7,R1150475,M77560,-,-,"NSC1548 [1,1'-biphenyl]-2-ol",Koerner,Koerner,A5912,-,-,-,9.97,Log unit,,-,OC1C(C2CCCCC2)CCCC1,phenol
CC1CCC(O)CC1C,95-65-8,R1150476,M30577,-,-,"NSC1549 3,4-dimethylphenol",Koerner,Koerner,A5912,-,-,-,10.4,Log unit,,-,OC1CCC(C(C)C1)C,phenol
OC1CCCC(C1)[N+]([O-])=O,554-84-7,R1150477,M740515,-,-,NSC1551 3-(hydroxy(oxido)amino)phenol,Koerner,Koerner,A5912,-,-,-,8.36,Log unit,,-,OC1CC([N+](=O)[O-])CCC1,phenol
OC1CCCCC1[N+]([O-])=O,88-75-5,R1150478,M740570,-,-,NSC1552 2-(hydroxy(oxido)amino)phenol,Koerner,Koerner,A5912,-,-,-,7.23,Log unit,,-,OC1C([N+](=O)[O-])CCCC1,phenol
CCOC1CCCCC1O,94-71-3,R1150479,M27655,-,-,NSC1809 2-ethoxyphenol,Koerner,Koerner,A5912,-,-,-,10.1,Log unit,,-,OC1C(OCC)CCCC1,phenol
OC1CCC(CC1)C1CCCCC1,92-69-3,R1150480,M71259,-,-,"NSC1858 [1,1'-biphenyl]-4-ol",Koerner,Koerner,A5912,-,-,-,9.55,Log unit,,-,OC1CCC(C2CCCCC2)CC1,phenol
CC(C)C1CCC(O)CC1,99-89-8,R1150481,M29555,-,-,NSC1888 4-isopropylphenol,Koerner,Koerner,A5912,-,-,-,10.2,Log unit,,-,OC1CCC(C(C)C)CC1,phenol
CC1CC(CC(C1O)[N+]([O-])=O)[N+]([O-])=O,534-52-1,R1150482,M740599,-,-,"NSC2082 2,4-bis(hydroxy(oxido)amino)-6-methylphenol",Koerner,Koerner,A5912,-,-,-,4.31,Log unit,,-,OC1C(CC(CC1[N+](=O)[O-])[N+](=O)[O-])C,phenol
CC1CCCC(C)C1O,576-26-1,R1150483,M30108,-,-,"NSC2123 2,6-dimethylphenol",Koerner,Koerner,A5912,-,-,-,10.6,Log unit,,-,OC1C(C)CCCC1C,phenol
OC1CCC(CC1)C=O,123-08-0,R1150484,M740508,-,-,NSC2127 4-hydroxybenzaldehyde,Koerner,Koerner,A5912,-,-,-,7.61,Log unit,,-,OC1CCC(C=O)CC1,phenol
OC1C(Br)CC(Br)CC1Br,118-79-6,R1150485,M740585,-,-,"NSC2136 2,4,6-tribromophenol",Koerner,Koerner,A5912,-,-,-,6.8,Log unit,,-,OC1C(CC(CC1Br)Br)Br,phenol
COC1CCCC(C=O)C1O,148-53-8,R1150486,M740539,-,-,NSC2150 2-hydroxy-3-methoxybenzaldehyde,Koerner,Koerner,A5912,-,-,-,7.91,Log unit,,-,OC1C(C=O)CCCC1OC,phenol
OC1C(Cl)CC(Cl)CC1Cl,88-06-2,R1150487,M740571,-,-,"NSC2165 2,4,6-trichlorophenol",Koerner,Koerner,A5912,-,-,-,6.23,Log unit,,-,OC1C(Cl)CC(Cl)CC1Cl,phenol
CC(C)C1CCCC(O)C1,618-45-1,R1150488,M740524,-,-,NSC2209 3-isopropylphenol,Koerner,Koerner,A5912,-,-,-,10.2,Log unit,,-,OC1CC(C(C)C)CCC1,phenol
OC1C(Cl)CC(Cl)C(Cl)C1Cl,58-90-2,R1150489,M740563,-,-,"NSC2428 2,3,4,6-tetrachlorophenol",Koerner,Koerner,A5912,-,-,-,5.22,Log unit,,-,OC1C(C(Cl)C(CC1Cl)Cl)Cl,phenol
CC(=O)C1CCCC(O)C1,121-71-1,R1150490,M740507,-,-,NSC2440 1-(3-hydroxyphenyl)ethanone,Koerner,Koerner,A5912,-,-,-,9.25,Log unit,,-,OC1CC(C(=O)C)CCC1,phenol
CC1CCC(C)C(O)C1,95-87-4,R1150491,M73434,-,-,"NSC2599 2,5-dimethylphenol",Koerner,Koerner,A5912,-,-,-,10.4,Log unit,,-,OC1C(C)CCC(C1)C,phenol
CC1CC(Cl)CCC1O,1570-64-5,R1150492,M740624,-,-,NSC2851 4-chloro-2-methylphenol,Koerner,Koerner,A5912,-,-,-,9.71,Log unit,,-,OC1C(C)CC(CC1)Cl,phenol
OC1CCCCC1Cl,95-57-8,R1150493,M31363,-,-,NSC2870 2-chlorophenol,Koerner,Koerner,A5912,-,-,-,8.56,Log unit,,-,OC1C(CCCC1)Cl,phenol
OC1CCC(Cl)CC1,106-48-9,R1150494,M37231,-,-,NSC2877 4-chlorophenol,Koerner,Koerner,A5912,-,-,-,9.41,Log unit,,-,OC1CCC(Cl)CC1,phenol
CC1CCCC(Cl)C1O,87-64-9,R1150495,M740566,-,-,NSC2878 2-chloro-6-methylphenol,Koerner,Koerner,A5912,-,-,-,8.69,Log unit,,-,OC1C(C)CCCC1Cl,phenol
OC1CCC(Cl)CC1Cl,120-83-2,R1150496,M740588,-,-,"NSC2879 2,4-dichlorophenol",Koerner,Koerner,A5912,-,-,-,7.89,Log unit,,-,OC1C(Cl)CC(CC1)Cl,phenol
OC1C(CC(CC1[N+]([O-])=O)[N+]([O-])=O)C1CCCCC1,731-92-0,R1150497,M740592,-,-,"NSC2880 3,5-bis(hydroxy(oxido)amino)[1,1'-biphenyl]-2-ol",Koerner,Koerner,A5912,-,-,-,3.85,Log unit,,-,OC1C(CC([N+](=O)[O-])CC1[N+](=O)[O-])C1CCCCC1,phenol
NC(=O)C1CCCCC1O,65-45-2,R1150498,M740537,-,-,NSC3115 salicylamide,Koerner,Koerner,A5912,-,-,-,8.37,Log unit,,-,OC1C(C(=O)N)CCCC1,phenol
CC1CCC(C(O)C1)[N+]([O-])=O,700-38-9,R1150499,M740616,-,-,NSC3142 2-(hydroxy(oxido)amino)-5-methylphenol,Koerner,Koerner,A5912,-,-,-,7.41,Log unit,,-,OC1C([N+](=O)[O-])CCC(C)C1,phenol
OC1CCC(CC1)\N=N\C1CCCCC1,1689-82-3,R1150500,M1154393,-,-,NSC3177 4-(phenyldiazenyl)phenol,Koerner,Koerner,A5912,-,-,-,8.2,Log unit,,-,OC1CCC(CC1)N=NC1CCCCC1,phenol
OC1CCCC(C1)C=O,100-83-4,R1150501,M740503,-,-,NSC3504 3-hydroxybenzaldehyde,Koerner,Koerner,A5912,-,-,-,8.98,Log unit,,-,OC1CC(C=O)CCC1,phenol
CC1CCC(O)CC1,106-44-5,R1150502,M6963,-,-,NSC3696 p-cresol,Koerner,Koerner,A5912,-,-,-,10.3,Log unit,,-,OC1CCC(CC1)C,phenol
CC(=O)C1CCC(O)CC1,99-93-4,R1150503,M740502,-,-,NSC3698 1-(4-hydroxyphenyl)ethanone,Koerner,Koerner,A5912,-,-,-,8.05,Log unit,,-,OC1CCC(C(=O)C)CC1,phenol
OCC1CCCCC1O,90-01-7,R1150504,M1017990,-,-,NSC3814 2-(hydroxymethyl)phenol,Koerner,Koerner,A5912,-,-,-,9.84,Log unit,,-,OC1C(CO)CCCC1,phenol
COC1CCCCC1O,90-05-1,R1150505,M72149,-,-,NSC3815 2-methoxyphenol,Koerner,Koerner,A5912,-,-,-,9.98,Log unit,,-,OC1C(OC)CCCC1,phenol
CC1CCC(O)C(C)C1,105-67-9,R1150506,M99214,-,-,"NSC3829 2,4-dimethylphenol",Koerner,Koerner,A5912,-,-,-,10.6,Log unit,,-,OC1C(C)CC(CC1)C,phenol
CC(=O)NC1CCC(O)CC1,103-90-2,R1150507,M81153,-,-,NSC3991 N-(4-hydroxyphenyl)acetamide,Koerner,Koerner,A5912,-,-,-,9.38,Log unit,,-,OC1CCC(NC(=O)C)CC1,phenol
OC1C(Cl)CC(CC1Cl)[N+]([O-])=O,618-80-4,R1150508,M740611,-,-,"NSC4123 2,6-dichloro-4-(hydroxy(oxido)amino)phenol",Koerner,Koerner,A5912,-,-,-,3.55,Log unit,,-,OC1C(CC([N+](=O)[O-])CC1Cl)Cl,phenol
CC1CC(O)CCC1Cl,59-50-7,R1150509,M740496,-,-,NSC4166 4-chloro-3-methylphenol,Koerner,Koerner,A5912,-,-,-,9.55,Log unit,,-,OC1CCC(C(C)C1)Cl,phenol
CCOC1CCCC(O)C1,621-34-1,R1150510,M740526,-,-,NSC4875 3-ethoxyphenol,Koerner,Koerner,A5912,-,-,-,9.65,Log unit,,-,OC1CC(OCC)CCC1,phenol
COC1CCC(O)CC1,150-76-5,R1150511,M740509,-,-,NSC4960 4-methoxyphenol,Koerner,Koerner,A5912,-,-,-,10.1,Log unit,,-,OC1CCC(OC)CC1,phenol
CC(C)C1CC(Cl)C(C)CC1O,89-68-9,R1150512,M740572,-,-,NSC4964 4-chloro-2-isopropyl-5-methylphenol,Koerner,Koerner,A5912,-,-,-,9.98,Log unit,,-,OC1C(C(C)C)CC(C(C)C1)Cl,phenol
CCC(C)(C)C1CCC(O)CC1,80-46-6,R1150513,M75285,-,-,NSC4965 4-tert-pentylphenol,Koerner,Koerner,A5912,-,-,-,10.4,Log unit,,-,OC1CCC(C(C)(CC)C)CC1,phenol
COC1CC(C)CCC1O,93-51-6,R1150514,M740574,-,-,NSC4969 2-methoxy-4-methylphenol,Koerner,Koerner,A5912,-,-,-,10.3,Log unit,,-,OC1C(OC)CC(CC1)C,phenol
OC1CCC(Br)CC1,106-41-2,R1150515,M740505,-,-,NSC4970 4-bromophenol,Koerner,Koerner,A5912,-,-,-,9.17,Log unit,,-,OC1CCC(CC1)Br,phenol
CC1CC(O)CC(C)C1Cl,88-04-0,R1150516,M740498,-,-,"NSC4971 4-chloro-3,5-dimethylphenol",Koerner,Koerner,A5912,-,-,-,9.7,Log unit,,-,OC1CC(C)C(Cl)C(C1)C,phenol
CC(C)C1CCCCC1O,88-69-7,R1150517,M65182,-,-,NSC5103 2-isopropylphenol,Koerner,Koerner,A5912,-,-,-,10.5,Log unit,,-,OC1C(C(C)C)CCCC1,phenol
CC(C)C1CCCC(C(C)C)C1O,2078-54-8,R1150518,M740627,-,-,"NSC5105 2,6-diisopropylphenol",Koerner,Koerner,A5912,-,-,-,11.1,Log unit,,-,OC1C(C(C)C)CCCC1C(C)C,phenol
CC1CC(C)C(C)C(O)C1,697-82-5,R1150519,M740615,-,-,"NSC5296 2,3,5-trimethylphenol",Koerner,Koerner,A5912,-,-,-,10.7,Log unit,,-,OC1CC(C)CC(C1C)C,phenol
CC1CC(C)C(O)C(C)C1,527-60-6,R1150520,M740597,-,-,"NSC5353 2,4,6-trimethylphenol",Koerner,Koerner,A5912,-,-,-,10.9,Log unit,,-,OC1C(C)CC(C)CC1C,phenol
CC1CCC(O)C(C1)[N+]([O-])=O,119-33-5,R1150521,M740587,-,-,NSC5387 2-(hydroxy(oxido)amino)-4-methylphenol,Koerner,Koerner,A5912,-,-,-,7.6,Log unit,,-,OC1C([N+](=O)[O-])CC(CC1)C,phenol
OC1C(Br)C(Br)C(Br)C(Br)C1Br,608-71-9,R1150522,M740605,-,-,"NSC5717 2,3,4,5,6-pentabromophenol",Koerner,Koerner,A5912,-,-,-,4.62,Log unit,,-,OC1C(C(C(C(C1Br)Br)Br)Br)Br,phenol
OC1C(CC(Cl)CC1[N+]([O-])=O)[N+]([O-])=O,88-87-9,R1150523,M740568,-,-,"NSC6212 4-chloro-2,6-bis(hydroxy(oxido)amino)phenol",Koerner,Koerner,A5912,-,-,-,2.96,Log unit,,-,OC1C([N+](=O)[O-])CC(CC1[N+](=O)[O-])Cl,phenol
OC1CCC(Br)CC1Br,615-58-7,R1150524,M740610,-,-,"NSC6213 2,4-dibromophenol",Koerner,Koerner,A5912,-,-,-,7.79,Log unit,,-,OC1C(CC(CC1)Br)Br,phenol
OC1C(Br)CCCC1Br,608-33-3,R1150525,M740606,-,-,"NSC6214 2,6-dibromophenol",Koerner,Koerner,A5912,-,-,-,6.67,Log unit,,-,OC1C(CCCC1Br)Br,phenol
OC1C(CCCC1[N+]([O-])=O)[N+]([O-])=O,573-56-8,R1150526,M740601,-,-,"NSC6215 2,6-bis(hydroxy(oxido)amino)phenol",Koerner,Koerner,A5912,-,-,-,3.97,Log unit,,-,OC1C([N+](=O)[O-])CCCC1[N+](=O)[O-],phenol
OC1CC(Cl)CCC1Cl,583-78-8,R1150527,M740603,-,-,"NSC6296 2,5-dichlorophenol",Koerner,Koerner,A5912,-,-,-,7.51,Log unit,,-,OC1C(Cl)CCC(C1)Cl,phenol
COC1CC(CCC1O)\C=C\C,97-54-1,R1150528,M740579,-,-,NSC6769 2-methoxy-4-(1-propenyl)phenol,Koerner,Koerner,A5912,-,-,-,9.88,Log unit,,-,OC1CCC(CC1OC)C=CC,phenol
OC1CCCCC1Br,95-56-7,R1150529,M740576,-,-,NSC6970 2-bromophenol,Koerner,Koerner,A5912,-,-,-,8.45,Log unit,,-,OC1C(CCCC1)Br,phenol
OC1C(CC(CC1[N+]([O-])=O)[N+]([O-])=O)C1CCCCC1,131-89-5,R1150530,M740592,-,-,"NSC7739 2-cyclohexyl-4,6-bis(hydroxy(oxido)amino)phenol",Koerner,Koerner,A5912,-,-,-,4.52,Log unit,,-,OC1C(CC([N+](=O)[O-])CC1[N+](=O)[O-])C1CCCCC1,phenol
CC1CCCC(O)C1,108-39-4,R1150531,M22043,-,-,NSC8768 m-cresol,Koerner,Koerner,A5912,-,-,-,10.1,Log unit,,-,OC1CC(C)CCC1,phenol
CCC1CCCC(O)C1,620-17-7,R1150532,M740525,-,-,NSC8873 3-ethylphenol,Koerner,Koerner,A5912,-,-,-,9.9,Log unit,,-,OC1CC(CC)CCC1,phenol
CCC1CC(C)CC(O)C1,698-71-5,R1150533,M740531,-,-,NSC8885 3-ethyl-5-methylphenol,Koerner,Koerner,A5912,-,-,-,10.1,Log unit,,-,OC1CC(CC(CC)C1)C,phenol
COC1CC(CC=C)CCC1O,97-53-0,R1150534,M740580,-,-,NSC8895 4-allyl-2-methoxyphenol,Koerner,Koerner,A5912,-,-,-,10.2,Log unit,,-,OC1CCC(CC1OC)CC=C,phenol
CC1CC(C)CC(O)C1,108-68-9,R1150535,M30314,-,-,"NSC9268 3,5-dimethylphenol",Koerner,Koerner,A5912,-,-,-,10.2,Log unit,,-,OC1CC(CC(C)C1)C,phenol
OC1CCCC(C1)C(F)(F)F,98-17-9,R1150536,M740501,-,-,NSC9884 3-(trifluoromethyl)phenol,Koerner,Koerner,A5912,-,-,-,8.95,Log unit,,-,OC1CC(C(F)(F)F)CCC1,phenol
CCOC1CCC(O)CC1,622-62-8,R1150537,M740527,-,-,NSC9885 4-ethoxyphenol,Koerner,Koerner,A5912,-,-,-,10.1,Log unit,,-,OC1CCC(OCC)CC1,phenol
CCC1CCCCC1O,90-00-6,R1150538,M28670,-,-,NSC10112 2-ethylphenol,Koerner,Koerner,A5912,-,-,-,10.2,Log unit,,-,OC1C(CC)CCCC1,phenol
OC1CC(F)CCC1[N+]([O-])=O,446-36-6,R1150539,M740595,-,-,NSC10284 5-fluoro-2-(hydroxy(oxido)amino)phenol,Koerner,Koerner,A5912,-,-,-,6.07,Log unit,,-,OC1C([N+](=O)[O-])CCC(F)C1,phenol
OC1CCCCC1F,367-12-4,R1150540,M740594,-,-,NSC10294 2-fluorophenol,Koerner,Koerner,A5912,-,-,-,8.7,Log unit,,-,OC1C(F)CCCC1,phenol
OC1CCC(F)CC1,371-41-5,R1150541,M740511,-,-,NSC10295 4-fluorophenol,Koerner,Koerner,A5912,-,-,-,9.91,Log unit,,-,OC1CCC(F)CC1,phenol
CC(C)C1CCC(C)CC1O,89-83-8,R1150542,M7478,-,-,NSC11215 thymol,Koerner,Koerner,A5912,-,-,-,10.6,Log unit,,-,OC1C(C(C)C)CCC(C)C1,phenol
CC1CCC(CC1O)[N+]([O-])=O,5428-54-6,R1150543,M740634,-,-,NSC12987 5-(hydroxy(oxido)amino)-2-methylphenol,Koerner,Koerner,A5912,-,-,-,8.59,Log unit,,-,OC1CC([N+](=O)[O-])CCC1C,phenol
OC1CCCCC1C(=O)NC1CCCCC1,87-17-2,R1150544,M740538,-,-,NSC14881 2-hydroxy-N-phenylbenzamide,Koerner,Koerner,A5912,-,-,-,7.4,Log unit,,-,OC1C(C(=O)NC2CCCCC2)CCCC1,phenol
COC1CC(CCC1O)C=O,121-33-5,R1150545,M740589,-,-,NSC15351 4-hydroxy-3-methoxybenzaldehyde,Koerner,Koerner,A5912,-,-,-,7.4,Log unit,,-,OC1CCC(CC1OC)C=O,phenol
OC1CCCC(C1)C1CCCCC1,580-51-8,R1150546,M740517,-,-,"NSC17588 [1,1'-biphenyl]-3-ol",Koerner,Koerner,A5912,-,-,-,9.64,Log unit,,-,OC1CC(CCC1)C1CCCCC1,phenol
OC1C(F)C(F)C(F)C(F)C1F,771-61-9,R1150547,M740618,-,-,"NSC21627 2,3,4,5,6-pentafluorophenol",Koerner,Koerner,A5912,-,-,-,5.53,Log unit,,-,OC1C(F)C(C(F)C(C1F)F)F,phenol
COC1CCCC(O)C1,150-19-6,R1150548,M740510,-,-,NSC21735 3-methoxyphenol,Koerner,Koerner,A5912,-,-,-,9.65,Log unit,,-,OC1CC(OC)CCC1,phenol
OC1CCCCC1C(=O)NC1CCC(Cl)CC1,3679-63-8,R1150549,M740545,-,-,NSC22902 N-(4-chlorophenyl)-2-hydroxybenzamide,Koerner,Koerner,A5912,-,-,-,7.3,Log unit,,-,OC1C(C(=O)NC2CCC(CC2)Cl)CCCC1,phenol
CC1CCCCC1O,95-48-7,R1150550,M21929,-,-,NSC23076 o-cresol,Koerner,Koerner,A5912,-,-,-,10.3,Log unit,,-,OC1C(C)CCCC1,phenol
SC1C[NH2+]C2CCCCC2C1,-,R946528,M1107314,-,-,3-mercaptoquinoline,Koerner,charochkina,A5793,-,-,-,2.3,Log unit,25,?C,SC1[CH][NH2+]C2[CH][CH][CH][CH]C2[CH]1,0
SC1CC[NH2+]C2CCCCC12,-,R946529,M1107315,-,-,4-mercaptoquinoline,Koerner,charochkina,A5793,-,-,-,0.77,Log unit,25,?C,SC1[CH][CH][NH2+]C2C1[CH][CH][CH][CH]2,0
[S-]C1=CC=NC2=C1C=CC=C2,-,R946530,M1106918,-,-,4-mercaptoquinoline,Koerner,charochkina,A5793,-,-,-,8.87,Log unit,25,?C,n1ccc([S-])c2ccccc12,4
[S-]C1=CC=CC2=C1C=CC=N2,-,R946531,M1106919,-,-,5-mercaptoquinoline,Koerner,charochkina,A5793,-,-,-,6.52,Log unit,25,?C,n1c2c(c([S-])ccc2)ccc1,10
SC1CCC2[NH2+]CCCC2C1,-,R946532,M1107316,-,-,6-mercaptoquinoline,Koerner,charochkina,A5793,-,-,-,3.91,Log unit,25,?C,SC1[CH][CH]C2[NH2+][CH][CH][CH]C2[CH]1,0
[S-]C1=CC=C2N=CC=CC2=C1,-,R946533,M1106920,-,-,6-mercaptoquinoline,Koerner,charochkina,A5793,-,-,-,6.5,Log unit,25,?C,n1c2ccc([S-])cc2ccc1,5
SC1CCCC2CCC[NH2+]C12,-,R946534,M1107317,-,-,8-Mercaptoquinoline,Koerner,charochkina,A5793,-,-,-,2.015,Log unit,25,?C,SC1[CH][CH][CH]C2C1[NH2+][CH][CH][CH]2,0
[S-]C1=CC=CC2=C1N=CC=C2,-,R946535,M1106921,-,-,8-Mercaptoquinoline,Koerner,charochkina,A5793,-,-,-,8.33,Log unit,25,?C,n1c2c([S-])cccc2ccc1,6
CC1CC(S)C2[NH2+]CCC(C)C2C1,-,R946536,M1107318,-,-,"8-mercapto-4,6-dimethylquinoline",Koerner,charochkina,A5793,-,-,-,2.3,Log unit,25,?C,SC1[CH]C([CH]C2C1[NH2+][CH][CH]C2C)C,0
CC1=CC2=C(N=CC=C2C)C([S-])=C1,-,R946537,M1106922,-,-,"8-mercapto-4,6-dimethylquinoline",Koerner,charochkina,A5793,-,-,-,9.3,Log unit,25,?C,n1c2c([S-])cc(cc2c(cc1)C)C,7
CC1CCC2CCCC(S)C2[NH2+]1,-,R946538,M1107319,-,-,8-mercapto-2-methylquinoline,Koerner,charochkina,A5793,-,-,-,2.28,Log unit,25,?C,SC1[CH][CH][CH]C2C1[NH2+]C([CH][CH]2)C,0
CC1CC[NH2+]C2C(S)CCCC12,-,R946539,M1107320,-,-,8-mercapto-4-methylquinoline,Koerner,charochkina,A5793,-,-,-,2.07,Log unit,25,?C,SC1[CH][CH][CH]C2C1[NH2+][CH][CH]C2C,0
CC1=CC=NC2=C1C=CC=C2[S-],-,R946540,M1106923,-,-,8-mercapto-4-methylquinoline,Koerner,charochkina,A5793,-,-,-,9.1,Log unit,25,?C,n1c2c([S-])cccc2c(cc1)C,6
CC1CC(S)C2[NH2+]CCCC2C1,-,R946541,M1107321,-,-,8-mercapto-6-methylquinoline,Koerner,charochkina,A5793,-,-,-,2.11,Log unit,25,?C,SC1[CH]C([CH]C2C1[NH2+][CH][CH][CH]2)C,0
CC1=CC2=C(N=CC=C2)C([S-])=C1,-,R946542,M1106924,-,-,8-mercapto-6-methylquinoline,Koerner,charochkina,A5793,-,-,-,8.49,Log unit,25,?C,n1c2c([S-])cc(cc2ccc1)C,7
CC1CCC2CCC[NH2+]C2C1S,-,R946543,M1107322,-,-,8-mercapto-7-methylquinoline,Koerner,charochkina,A5793,-,-,-,2.25,Log unit,25,?C,SC1C([CH][CH]C2C1[NH2+][CH][CH][CH]2)C,0