Smiles,CASRN,Record ID,Molecule ID,External ID,N,Name,Introducer,Modifer,Article ID,PUBMED ID,PAGE,TABLE,pKa,pKa Unit,Temperature,Temperature Unit,Ionizable center smiles,IC group
CC(C)(C)C1=NC(N)=NC=C1Br,-,R1207163,M1158009,-,-,2-amino-5-bromo-4-t-butylpyrimidine,Koerner,charochkina,A5793,-,-,-,2.88,Log unit,25,?C,n1cc(Br)c(nc1N)C(C)(C)C,4
CC1=NC(N)=NC=C1Br,-,R1207165,M1158010,-,-,2-amino-5-bromo-4-methylpyrimidine,Koerner,charochkina,A5793,-,-,-,2.61,Log unit,25,?C,n1cc(Br)c(nc1N)C,4
CC1=NC=C(Br)C(N)=N1,-,R1207166,M1158011,-,-,4-amino-5-bromo-2-methylpyrimidine,Koerner,charochkina,A5793,-,-,-,4.08,Log unit,25,?C,n1cc(Br)c(nc1C)N,4
NC(N)=NN(=O)=O,-,R1206671,M4312,-,-,nitro-guanidine,Koerner,charochkina,A5793,-,-,-,-0.93,Log unit,25,?C,NC(=NN(=O)=O)N,neth
NC(N)=NN=O,-,R1206672,M23237,-,-,nitroso-Guanidine,Koerner,charochkina,A5793,-,-,-,2.13,Log unit,25,?C,O=NN=C(N)N,neth
NC(N)=NC#N,-,R1206673,M9102,-,-,Cyano-Guanidine,Koerner,charochkina,A5793,-,-,-,-0.4,Log unit,25,?C,N(=C(N)N)C#N,neth
CN=C(N(C)C)N(C)C,-,R1206674,M1106707,-,-,pentmethylaguanidine,Koerner,charochkina,A5793,-,-,-,13.8,Log unit,25,?C,N(=C(N(C)C)N(C)C)C,neth
NC(N)=NC1=CC=CC=C1,-,R1206675,M26086,-,-,N-Phenylguanidine,Koerner,charochkina,A5793,-,-,-,10.8,Log unit,25,?C,N(=C(N)N)c1ccccc1,neth
CN(C)C(=N)N(C)C,-,R1206676,M17619,-,-,"N,N,N',N'-tetramethylaguanidine",Koerner,charochkina,A5793,-,-,-,13.9,Log unit,25,?C,N=C(N(C)C)N(C)C,neth
CNC(=NC)N(C)C,-,R1206677,M1106708,-,-,"N,N,N',N''-tetramethylaguanidine",Koerner,charochkina,A5793,-,-,-,13.9,Log unit,25,?C,N(=C(N(C)C)NC)C,neth
CNC(=N)N(C)C,-,R1206678,M1106709,-,-,"N,N',N'-trimethylaguanidine",Koerner,charochkina,A5793,-,-,-,13.9,Log unit,25,?C,N=C(N(C)C)NC,neth
CNC(=NN(=O)=O)N(C)C,-,R1206679,M1106710,-,-,"N,N',N'-tetra-nitro-methylaguanidine",Koerner,charochkina,A5793,-,-,-,-0.82,Log unit,25,?C,N(C(=NN(=O)=O)N(C)C)C,neth
CNC(NC)=NC,-,R1206680,M76611,-,-,"N,N',N''-tetramethylaguanidine",Koerner,charochkina,A5793,-,-,-,13.9,Log unit,25,?C,N(=C(NC)NC)C,neth
N1C=NC2=C1C1=C(C=CC=C1)C=C2,-,R1206681,M1106711,-,-,"1(3)H-napth[1,2-d]imidazole",Koerner,charochkina,A5793,-,-,-,5.27,Log unit,25,?C,n1c2ccc3ccccc3c2[nH]c1,nethR
N1C=NC2=CC3=C(C=CC=C3)C=C12,-,R1206682,M251266,-,-,"1H-napth[1,2-d]imidazole",Koerner,charochkina,A5793,-,-,-,5.21,Log unit,25,?C,n1c[nH]c2cc3ccccc3cc12,nethR
CCC1=NC2=CC3=C(C=CC=C3)C=C2N1,-,R1206683,M1106712,-,-,"2-ethyl-1H-napth[1,2-d]imidazole",Koerner,charochkina,A5793,-,-,-,6.13,Log unit,25,?C,n1c([nH]c2cc3ccccc3cc12)CC,nethR
CC1=NC2=CC3=C(C=CC=C3)C=C2N1,-,R1206684,M1106713,-,-,"2-methyl-1H-napth[1,2-d]imidazole",Koerner,charochkina,A5793,-,-,-,6.1,Log unit,25,?C,n1c([nH]c2cc3ccccc3cc12)C,nethR
N1C=NC2=CC=CC3=C2C1=CC=C3,-,R1206685,M1106714,-,-,Perimidine,Koerner,charochkina,A5793,-,-,-,5.27,Log unit,25,?C,n1c[nH]c2cccc3cccc1c23,nethR
N1C=NC2=CC=CC=C12,-,R1206686,M4217,-,-,Benzimidazole,Koerner,charochkina,A5793,-,-,-,5.6,Log unit,25,?C,n1c[nH]c2ccccc12,nethR
N1C=NC2=CC=CC=C12,-,R1206687,M4217,-,-,Benzimidazole,Koerner,charochkina,A5793,-,-,-,12.86,Log unit,25,?C,[nH]1cnc2ccccc12,nr2_a
NC1=C2N=CNC2=CC=C1,-,R1206688,M1044130,-,-,4-aminobenzimidazole,Koerner,charochkina,A5793,-,-,-,5.3,Log unit,25,?C,n1c[nH]c2cccc(c12)N,nethR
NC1=C2[N+]=CNC2=CC=C1,-,R1206689,M1157918,-,-,4-amonobenzimidazole,Koerner,charochkina,A5793,-,-,-,1.5,Log unit,25,?C,[nH]1c[n+]c2c(N)cccc12,4
NC1=CC=C2NC=NC2=C1,-,R1206690,M68184,-,-,5-Aminobenzimidazole,Koerner,charochkina,A5793,-,-,-,6.1,Log unit,25,?C,n1c[nH]c2ccc(cc12)N,nethR
NC1=CC=C2NC=[N+]C2=C1,-,R1206691,M1157919,-,-,5-amonobenzimidazole,Koerner,charochkina,A5793,-,-,-,3.3,Log unit,25,?C,Nc1cc2[n+]c[nH]c2cc1,4
NC1=CC=C2NC(CC3=CC=CC=C3)=NC2=C1,-,R1206692,M1106715,-,-,5-amino-2-benzyl-benzimidazole,Koerner,charochkina,A5793,-,-,-,6.4,Log unit,25,?C,n1c([nH]c2ccc(cc12)N)Cc1ccccc1,nethR
NC1=CC=C2NC(CC3=CC=CC=C3)=[N+]C2=C1,-,R1206693,M1157920,-,-,5-amono-2-benzyl-benzimidazole,Koerner,charochkina,A5793,-,-,-,3.3,Log unit,25,?C,[nH]1c(Cc2ccccc2)[n+]c2cc(N)ccc12,4
CC1=NC2=C(N)C=CC=C2N1,-,R1206694,M1106716,-,-,4-amino-2-methylbenzimidazole,Koerner,charochkina,A5793,-,-,-,5.9,Log unit,25,?C,n1c([nH]c2cccc(c12)N)C,nethR
CC1=[N+]C2=C(N)C=CC=C2N1,-,R1206695,M1157921,-,-,4-amino-2-methylbenzimidazole,Koerner,charochkina,A5793,-,-,-,1.7,Log unit,25,?C,[nH]1c(C)[n+]c2c(N)cccc12,4
CC1=NC2=CC(N)=CC=C2N1,-,R1206696,M1106717,-,-,5-amino-2-methylbenzimidazole,Koerner,charochkina,A5793,-,-,-,6.7,Log unit,25,?C,n1c([nH]c2ccc(cc12)N)C,nethR
CC1=[N+]C2=CC(N)=CC=C2N1,-,R1206697,M1157922,-,-,5-amino-2-methylbenzimidazole,Koerner,charochkina,A5793,-,-,-,3.42,Log unit,25,?C,[nH]1c(C)[n+]c2cc(N)ccc12,4
CCC1=NC2=CC=CC=C2N1,-,R1206698,M25855,-,-,2-Ethylbenzimidazole,Koerner,charochkina,A5793,-,-,-,6.2,Log unit,25,?C,n1c([nH]c2ccccc12)CC,nethR
CC1=NC2=CC=CC=C2N1,-,R1206699,M6094,-,-,2-methylbenzimidazole,Koerner,charochkina,A5793,-,-,-,6.2,Log unit,25,?C,n1c([nH]c2ccccc12)C,nethR
CC1=NC2=CC=CC=C2N1,-,R1206700,M6094,-,-,2-methylbenzimidazole,Koerner,charochkina,A5793,-,-,-,13.8,Log unit,25,?C,[nH]1c(C)nc2ccccc12,nr2_a
CCC1=NC2=CC=CC=C2N1,-,R1206701,M25855,-,-,2-isopropyl-benzimidazole,Koerner,charochkina,A5793,-,-,-,6.21,Log unit,25,?C,n1c([nH]c2ccccc12)CC,nethR
CN(C)CCC1=NC2=CC=CC=C2N1,-,R1206702,M1106718,-,-,2-dimethylaminoethyl-benzimidazole,Koerner,charochkina,A5793,-,-,-,6.2,Log unit,25,?C,n1c([nH]c2ccccc12)CCN(C)C,nethR
N1C2=CC=CC=C2N=C1C1=CC=CC=C1,-,R1206703,M23435,-,-,2-phenyl-benzimidazole,Koerner,charochkina,A5793,-,-,-,11.91,Log unit,25,?C,[nH]1c(c2ccccc2)nc2ccccc12,nr2_a
O=N(=O)C1=CC=C2NC=NC2=C1,-,R1206704,M18110,-,-,5-nitroobenzimidazole,Koerner,charochkina,A5793,-,-,-,4.4,Log unit,25,?C,n1c[nH]c2ccc(cc12)N(=O)=O,nethR
O=N(=O)C1=CC=C2NC=NC2=C1,-,R1206705,M18110,-,-,5-nitroobenzimidazole,Koerner,charochkina,A5793,-,-,-,10.84,Log unit,25,?C,[nH]1cnc2cc(N(=O)=O)ccc12,nr2_a
NC1=NC2=C(S1)C=CC=C2,-,R1206706,M19463,-,-,2-amino-benzothiazole,Koerner,charochkina,A5793,-,-,-,4.3,Log unit,25,?C,n1c2ccccc2sc1N,nethR
COC1=CC=CC2=C1N=C(N)S2,-,R1206707,M30373,-,-,2-amino-4-methoxy-benzothiazole,Koerner,charochkina,A5793,-,-,-,4.29,Log unit,25,?C,n1c2c(cccc2sc1N)OC,nethR
COC1=CC2=C(SC(N)=N2)C=C1,-,R1206708,M40420,-,-,2-amino-5-methoxy-benzothiazole,Koerner,charochkina,A5793,-,-,-,4.35,Log unit,25,?C,n1c2cc(ccc2sc1N)OC,nethR
COC1=CC2=C(C=C1)N=C(N)S2,-,R1206709,M25697,-,-,2-amino-6-methoxy-benzothiazole,Koerner,charochkina,A5793,-,-,-,4.5,Log unit,25,?C,n1c2ccc(cc2sc1N)OC,nethR
CC1=CC=CC2=C1N=C(N)S2,-,R1206710,M25217,-,-,2-amino-4-methyl-benzothiazole,Koerner,charochkina,A5793,-,-,-,4.7,Log unit,25,?C,n1c2c(cccc2sc1N)C,nethR
CC1=CC2=C(SC(N)=N2)C=C1,-,R1206711,M1106719,-,-,2-amino-5-methyl-benzothiazole,Koerner,charochkina,A5793,-,-,-,4.6,Log unit,25,?C,n1c2cc(ccc2sc1N)C,nethR
CC1=CC2=C(C=C1)N=C(N)S2,-,R1206712,M27064,-,-,2-Amino-6-methyl-benzothiazole,Koerner,charochkina,A5793,-,-,-,4.6,Log unit,25,?C,n1c2ccc(cc2sc1N)C,nethR
CC1=CC=CC2=C1SC(N)=N2,-,R1206713,M1106720,-,-,2-amino-7-methyl-benzothiazole,Koerner,charochkina,A5793,-,-,-,4.6,Log unit,25,?C,n1c2cccc(C)c2sc1N,nethR
N1N=CC2=CC=CC=C12,-,R1206714,M638,-,-,33 1H-indazole,Koerner,charochkina,A5793,-,-,-,13.8,Log unit,25,?C,[nH]1ncc2ccccc12,nr2_a
NC1=NNC2=CC=CC=C12,-,R1206715,M23878,-,-,33 1H-3-aminoindazole,Koerner,charochkina,A5793,-,-,-,3.12,Log unit,25,?C,n1[nH]c2ccccc2c1N,4
NC1=C2C=NNC2=CC=C1,-,R1206716,M1157923,-,-,33 1H-4-aminoindazole,Koerner,charochkina,A5793,-,-,-,3.26,Log unit,25,?C,Nc1c2cn[nH]c2ccc1,4
NC1=CC=C2NN=CC2=C1,-,R1206717,M34698,-,-,33 1H-5-aminoindazole,Koerner,charochkina,A5793,-,-,-,5.12,Log unit,25,?C,Nc1cc2cn[nH]c2cc1,4
NC1=CC=C2C=NNC2=C1,-,R1206718,M31585,-,-,33 1H-6-aminoindazole,Koerner,charochkina,A5793,-,-,-,3.99,Log unit,25,?C,Nc1ccc2cn[nH]c2c1,4
NC1=C2NN=CC2=CC=C1,-,R1206719,M35268,-,-,33 1H-7-aminoindazole,Koerner,charochkina,A5793,-,-,-,3.09,Log unit,25,?C,n1[nH]c2c(cccc2c1)N,4
O=N(=O)C1=C2C=NNC2=CC=C1,-,R1206720,M512419,-,-,33 1H-4-nitroindazole,Koerner,charochkina,A5793,-,-,-,11.57,Log unit,25,?C,[nH]1ncc2c(N(=O)=O)cccc12,nr2_a
O=N(=O)C1=CC=C2NN=CC2=C1,-,R1206721,M30208,-,-,33 1H-5-nitroindazole,Koerner,charochkina,A5793,-,-,-,11.69,Log unit,25,?C,[nH]1ncc2cc(N(=O)=O)ccc12,nr2_a
O=N(=O)C1=CC=C2C=NNC2=C1,-,R1206722,M78899,-,-,33 1H-6-nitroindazole,Koerner,charochkina,A5793,-,-,-,11.67,Log unit,25,?C,[nH]1ncc2ccc(N(=O)=O)cc12,nr2_a
O=N(=O)C1=C2NN=CC2=CC=C1,-,R1206723,M72093,-,-,33 1H-7-nitroindazole,Koerner,charochkina,A5793,-,-,-,12.48,Log unit,25,?C,[nH]1ncc2cccc(N(=O)=O)c12,nr2_a
Nc1cc([n+]c(c1)C([O-])=O)C(O)=O,-,R1206740,M1157924,-,-,"4-amino-2,6-dicarboxypyridine",Koerner,charochkina,A5793,-,-,-,1.8,Log unit,25,?C,[O-]C(=O)c1[n+]c(cc(N)c1)C(=O)O,co2h
Nc1[n+]cccc1C(O)=O,-,R1206741,M1157925,-,-,2-amino-3-carboxypyridine,Koerner,charochkina,A5793,-,-,-,2.4,Log unit,25,?C,OC(=O)c1c([n+]ccc1)N,co2h
Nc1ccc[n+]c1C(O)=O,-,R1206743,M1157926,-,-,3-amino-2-carboxypyridine,Koerner,charochkina,A5793,-,-,-,1.5,Log unit,25,?C,OC(=O)c1[n+]cccc1N,co2h
[NH2+]CCC1=CC=CC=N1,-,R1206755,M1157927,-,-,2-(2-aminoethyl)-pyridine,Koerner,charochkina,A5793,-,-,-,3.8,Log unit,25,?C,n1ccccc1CC[NH2+],n
NC1=CC([O-])=CC=N1,-,R1206757,M1106725,-,-,2-amino-4-hydroxypyridine,Koerner,charochkina,A5793,-,-,-,10.7,Log unit,25,?C,[O-]c1ccnc(c1)N,n
NC1=CC=CC([O-])=N1,-,R1206758,M92059,-,-,2-amino-6-hydroxypyridine,Koerner,charochkina,A5793,-,-,-,11.38,Log unit,25,?C,[O-]c1nc(ccc1)N,n
NC1=C([O-])N=CC=C1,-,R1206759,M748346,-,-,3-Amino-2-hydroxypyridine,Koerner,charochkina,A5793,-,-,-,12.57,Log unit,25,?C,[O-]c1ncccc1N,n
NC1=CN=CC=C1[O-],-,R1206760,M1106726,-,-,3-amino-4-hydroxypyridine,Koerner,charochkina,A5793,-,-,-,11.38,Log unit,25,?C,[O-]c1ccncc1N,n
Nc1c[n+]ccc1O,-,R1206761,M1157928,-,-,3-amino-4-hydroxypyridine,Koerner,charochkina,A5793,-,-,-,3.84,Log unit,25,?C,Oc1cc[n+]cc1N,oh
NC1=CC=NC([O-])=C1,-,R1206762,M1106727,-,-,4-amino-2-hydroxypyridine,Koerner,charochkina,A5793,-,-,-,13.54,Log unit,25,?C,[O-]c1nccc(N)c1,n
NC1=CC=C([O-])N=C1,-,R1206763,M1106728,-,-,5-amino-2-hydroxypyridine,Koerner,charochkina,A5793,-,-,-,11.65,Log unit,25,?C,[O-]c1ncc(cc1)N,n
Nc1c[n+]ccc1S,-,R1206766,M1157929,-,-,3-amino-4-mercaptopyridine,Koerner,charochkina,A5793,-,-,-,1.6,Log unit,25,?C,Sc1cc[n+]cc1N,sh
NC1=CN=CC=C1[S-],-,R1206767,M1106729,-,-,3-amino-4-mercaptopyridine,Koerner,charochkina,A5793,-,-,-,9.2,Log unit,25,?C,[S-]c1ccncc1N,n
[NH2+]CC1=CC=CC=N1,-,R1206776,M1157930,-,-,2-aminomethylpyridine,Koerner,charochkina,A5793,-,-,-,3.1,Log unit,25,?C,n1ccccc1C[NH2+],n
NC1=CC=C(C=C1)c1cccc[n+]1,-,R1206785,M1157931,-,-,2-p-aminophenylpyridine,Koerner,charochkina,A5793,-,-,-,2.47,Log unit,25,?C,Nc1ccc(c2[n+]cccc2)cc1,nr2
NC1=CC=C(C=C1)c1cc[n+]cc1,-,R1206786,M1157932,-,-,2-p-aminophenylpyridine,Koerner,charochkina,A5793,-,-,-,2.75,Log unit,25,?C,Nc1ccc(c2cc[n+]cc2)cc1,nr2
C[N+](C)CCN(CC1=CC=CC=C1)C1=CC=CC=N1,-,R1206799,M1157933,-,-,2-[benzyl(2-dimethylaminoethyl)amino]-pyridine,Koerner,charochkina,A5793,-,-,-,3.92,Log unit,25,?C,n1ccccc1N(Cc1ccccc1)CC[N+](C)C,n
CN(C)CCN(CC1=CC=CC=C1)C1=CC=CC=N1,-,R1206801,M11021,-,-,2-[benzyl(2-dimethylaminoethyl)amino]-pyridine,Koerner,charochkina,A5793,-,-,-,8.5,Log unit,25,?C,N(CCN(c1ncccc1)Cc1ccccc1)(C)C,2
OC(=O)c1cccc[n+]1,-,R1206819,M1157934,-,-,2-Carboxypyridine,Koerner,charochkina,A5793,-,-,-,1,Log unit,25,?C,OC(=O)c1[n+]cccc1,co2h
OC(=O)c1ccc[n+]c1,-,R1206820,M1157935,-,-,3-Carboxypyridine,Koerner,charochkina,A5793,-,-,-,2.03,Log unit,25,?C,OC(=O)c1c[n+]ccc1,co2h
OC(=O)c1cc[n+]cc1,-,R1206821,M1157936,-,-,4-Carboxypyridine,Koerner,charochkina,A5793,-,-,-,1.755,Log unit,25,?C,OC(=O)c1cc[n+]cc1,co2h
Cc1cccc([n+]1)C(O)=O,-,R1206822,M1157937,-,-,2-Carboxy-6-methylpyridine,Koerner,charochkina,A5793,-,-,-,0.9,Log unit,25,?C,OC(=O)c1[n+]c(ccc1)C,co2h
[O-]C1=CC(Cl)=NC=C1,-,R1206828,M117035,-,-,2-chloro-4-hydroxypyridine,Koerner,charochkina,A5793,-,-,-,6.84,Log unit,25,?C,[O-]c1cc(Cl)ncc1,n
Oc1cc[n+]c(Cl)c1,-,R1206829,M1157938,-,-,2-chloro-4-hydroxypyridine,Koerner,charochkina,A5793,-,-,-,2.07,Log unit,25,?C,Oc1cc(Cl)[n+]cc1,oh
[O-]C1=NC=C(Cl)C=C1,-,R1206830,M73947,-,-,5-Chloro-2-hydroxypyridine,Koerner,charochkina,A5793,-,-,-,10.03,Log unit,25,?C,[O-]c1ncc(Cl)cc1,n
Oc1ccc(Cl)c[n+]1,-,R1206831,M1157939,-,-,5-Chloro-2-hydroxypyridine,Koerner,charochkina,A5793,-,-,-,0.01,Log unit,25,?C,Oc1[n+]cc(Cl)cc1,oh
C(C=C(C1=CC=CC=C1)C1=CC=CC=N1)[N+]1CCCC1,-,R1206837,M1157940,-,-,2-(1-p-chlorophenyl-3-pyrrolidino)prop-1-enylpyridine,Koerner,charochkina,A5793,-,-,-,3.2,Log unit,25,?C,n1ccccc1C(=CC[N+]1CCCC1)c1ccccc1,n
CN(C)CCN(CC1=CC=C(Cl)S1)C1=NC=CC=C1,-,R1206839,M19436,-,-,2-[(5-chloro-2-thienyl)(2-dimethylaminoethyl)amino]-pyridine,Koerner,charochkina,A5793,-,-,-,8.42,Log unit,25,?C,N(CCN(Cc1sc(Cl)cc1)c1ncccc1)(C)C,2
OC(=O)c1[n+]cccc1C([O-])=O,-,R1206851,M1157941,-,-,"2,3-dicarboxypyridine",Koerner,charochkina,A5793,-,-,-,2.43,Log unit,25,?C,OC(=O)c1[n+]cccc1C(=O)[O-],co2h
[O-]C(=O)C1=C(N=CC=C1)C([O-])=O,-,R1206852,M17897,-,-,"2,3-dicarboxypyridine",Koerner,charochkina,A5793,-,-,-,5.06,Log unit,25,?C,[O-]C(=O)c1c(nccc1)C(=O)[O-],n
[O-]C(=O)C1=CC=CC(=N1)C([O-])=O,-,R1206854,M20944,-,-,"2,6-Dicarboxypyridine",Koerner,charochkina,A5793,-,-,-,4.68,Log unit,25,?C,[O-]C(=O)c1nc(ccc1)C(=O)[O-],n
OC(=O)c1cccc([n+]1)C([O-])=O,-,R1206855,M1157942,-,-,"2,6-Dicarboxypyridine",Koerner,charochkina,A5793,-,-,-,1.8,Log unit,25,?C,OC(=O)c1[n+]c(ccc1)C(=O)[O-],co2h
[O-]C(=O)C1=CC=NC=C1C([O-])=O,-,R1206857,M20812,-,-,"3,4-dicarboxypyridine",Koerner,charochkina,A5793,-,-,-,5.07,Log unit,25,?C,[O-]C(=O)c1cnccc1C(=O)[O-],n
OC(=O)c1c[n+]cc(c1)C(O)=O,-,R1206858,M1157943,-,-,"3,5-dicarboxypyridine",Koerner,charochkina,A5793,-,-,-,1.4,Log unit,25,?C,OC(=O)c1c[n+]cc(c1)C(=O)O,co2h
OC(=O)c1c[n+]cc(c1)C([O-])=O,-,R1206859,M1157944,-,-,"3,5-dicarboxypyridine",Koerner,charochkina,A5793,-,-,-,2.42,Log unit,25,?C,[O-]C(=O)c1c[n+]cc(c1)C(=O)O,co2h
OC(=O)c1cc(Cl)cc([n+]1)C([O-])=O,-,R1206860,M1157945,-,-,"2,6-dicarboxy-4-chloropyridine",Koerner,charochkina,A5793,-,-,-,1.4,Log unit,25,?C,[O-]C(=O)c1cc(Cl)cc([n+]1)C(=O)O,co2h
[O-]C(=O)C1=CC(Cl)=CC(=N1)C([O-])=O,-,R1206861,M1106747,-,-,"2,6-dicarboxy-4-chloropyridine",Koerner,charochkina,A5793,-,-,-,3.75,Log unit,25,?C,[O-]C(=O)c1cc(Cl)cc(n1)C(=O)[O-],n
Cc1[n+]c(C)c(cc1C(O)=O)C(O)=O,-,R1206862,M1157946,-,-,"3,5-dicarboxy-2,6-dimethylpyridine",Koerner,charochkina,A5793,-,-,-,2.02,Log unit,25,?C,OC(=O)c1c([n+]c(C)c(c1)C(=O)O)C,co2h
Cc1[n+]c(C)c(cc1C(O)=O)C([O-])=O,-,R1206863,M1157947,-,-,"3,5-dicarboxy-2,6-dimethylpyridine",Koerner,charochkina,A5793,-,-,-,2.52,Log unit,25,?C,[O-]C(=O)c1c([n+]c(C)c(c1)C(=O)O)C,co2h
[O-]C(=O)C1=CC([O-])=CC(=N1)C([O-])=O,-,R1206865,M20937,-,-,"2,6-dicarboxy-4-hydroxypyridine",Koerner,charochkina,A5793,-,-,-,10.85,Log unit,25,?C,[O-]c1cc(nc(c1)C(=O)[O-])C(=O)[O-],n
Oc1cc([n+]c(c1)C([O-])=O)C([O-])=O,-,R1206866,M1157948,-,-,"2,6-dicarboxy-4-hydroxypyridine",Koerner,charochkina,A5793,-,-,-,3.18,Log unit,25,?C,[O-]C(=O)c1[n+]c(cc(O)c1)C(=O)[O-],oh
OC(=O)c1cc(O)cc([n+]1)C([O-])=O,-,R1206867,M1157949,-,-,"2,6-dicarboxy-4-hydroxypyridine",Koerner,charochkina,A5793,-,-,-,1.3,Log unit,25,?C,[O-]C(=O)c1[n+]c(cc(c1)O)C(=O)O,co2h
C[N+](C)CCC1=CN=CC=C1,-,R1206890,M1157950,-,-,3-(dimethylaminoethyl)-pyridine,Koerner,charochkina,A5793,-,-,-,4.3,Log unit,25,?C,n1cccc(c1)CC[N+](C)C,n
C[N+](C)CCC1=CC=NC=C1,-,R1206893,M1157951,-,-,4-(DIMETHYLAMINOETHYL)PYRIDINE,Koerner,charochkina,A5793,-,-,-,4.66,Log unit,25,?C,n1ccc(CC[N+](C)C)cc1,n
COC1=CC=C(CN(CCN(C)C)C2=CC=CC=N2)C=C1,-,R1206895,M13468,-,-,2-[(2-dimethylaminoethyl)(p-methoxybenzyl)amino]-pyridine,Koerner,charochkina,A5793,-,-,-,8.91,Log unit,25,?C,N(CCN(c1ncccc1)Cc1ccc(OC)cc1)(C)C,2
COC1=CC=C(CN(CC[N+](C)C)C2=CC=CC=N2)C=C1,-,R1206896,M1007490,-,-,2-[(2-dimethylaminoethyl)(p-methoxybenzyl)amino]-pyridine,Koerner,charochkina,A5793,-,-,-,4.02,Log unit,25,?C,n1ccccc1N(Cc1ccc(OC)cc1)CC[N+](C)C,n
C[N+](C)CCN(CC1=CC=CS1)C1=NC=CC=C1,-,R1206897,M1157952,-,-,2-[(2-dimethylaminoethyl)-2-thienylamino]-pyridine,Koerner,charochkina,A5793,-,-,-,3.66,Log unit,25,?C,n1c(N(Cc2sccc2)CC[N+](C)C)cccc1,n
NC(=N)C(O)C1=CC=CC=C1,-,R1206571,M1106673,-,-,(C-amidino-C-hydroxy)methylbenzene,Koerner,charochkina,A5793,-,-,-,11.1,Log unit,25,?C,N=C(C(c1ccccc1)O)N,neth
CCC(O)(C(N)=N)C1=CC=CC=C1,-,R1206572,M1106674,-,-,(1-amidineo-1-hydroxy)propylbenzene,Koerner,charochkina,A5793,-,-,-,11.4,Log unit,25,?C,OC(c1ccccc1)(C(=N)N)CC,neth
NC(CC1=CC=CC=C1)=NO,-,R1206573,M749937,-,-,(2-amino-2-hydroxyimino)ethylbenzene,Koerner,charochkina,A5793,-,-,-,5.2,Log unit,25,?C,N(=C(Cc1ccccc1)N)O,neth
NC(=NO)C1=CC=CC=C1,-,R1206574,M67198,-,-,C-amino-C-hydroxyiminoethylbenzene,Koerner,charochkina,A5793,-,-,-,4.79,Log unit,25,?C,N(=C(c1ccccc1)N)O,neth
CC1=CC=CC=C1C(N)=NO,-,R1206575,M1106675,-,-,1-(C-amino-C-hydroxyiminomethyl)-2-methylbenzene,Koerner,charochkina,A5793,-,-,-,3.99,Log unit,25,?C,N(=C(c1ccccc1C)N)O,neth
CC1=CC=C(C=C1)C(N)=NO,-,R1206576,M749762,-,-,1-(C-amino-C-hydroxyiminomethyl)-4-methylbenzene,Koerner,charochkina,A5793,-,-,-,5.1,Log unit,25,?C,N(=C(c1ccc(cc1)C)N)O,neth
NC(=N)NC1=CC=C(Cl)C=C1,-,R1206577,M183679,-,-,1-chloro-4-guanidinobenzene,Koerner,charochkina,A5793,-,-,-,10.9,Log unit,25,?C,N=C(Nc1ccc(Cl)cc1)N,neth
ClC1=CC=CC=C1C(=N)C1=CC=CC=C1,-,R1206578,M1106676,-,-,1-chloro-2-iminobenzylbenzene,Koerner,charochkina,A5793,-,-,-,5.9,Log unit,25,?C,N=C(c1c(Cl)cccc1)c1ccccc1,neth
ClC1=CC=CC=C1C(=N)C1=CC=CC=C1,-,R1206579,M1106676,-,-,1-chloro-3-iminobenzylbenzene,Koerner,charochkina,A5793,-,-,-,6,Log unit,25,?C,N=C(c1c(Cl)cccc1)c1ccccc1,neth
CNC(=N)NC1=CC=C(Cl)C=C1,-,R1206580,M1106677,-,-,1-chloro-4-N3-methylguanidinobenzene,Koerner,charochkina,A5793,-,-,-,11.15,Log unit,25,?C,N=C(Nc1ccc(Cl)cc1)NC,neth
OC1=CC=C(C(=N)C2=CC=CC=C2)C(O)=C1,-,R1206581,M1106678,-,-,"1,3-dihydroxy-4-iminobenzylbenzene",Koerner,charochkina,A5793,-,-,-,9.3,Log unit,25,?C,Oc1c(C(=N)c2ccccc2)ccc(O)c1,neth
OC1=CC(=CC=C1)C(=N)C1=CC=CC=C1,-,R1206582,M1106679,-,-,1-hydroxy-3-iminobenzylbenzene,Koerner,charochkina,A5793,-,-,-,7,Log unit,25,?C,N=C(c1ccccc1)c1cccc(c1)O,neth
OC1=CC=C(C=C1)C(=N)C1=CC=CC=C1,-,R1206583,M1106680,-,-,1-hydroxy-4-iminobenzylbenzene,Koerner,charochkina,A5793,-,-,-,7.85,Log unit,25,?C,N=C(c1ccccc1)c1ccc(O)cc1,neth
COC1=CC(=CC=C1O)C(=N)C1=CC=CC=C1,-,R1206584,M1106681,-,-,1-hydroxy-4-iminobenzyl-3-methoxybenzene,Koerner,charochkina,A5793,-,-,-,8.3,Log unit,25,?C,N=C(c1ccccc1)c1ccc(O)c(c1)OC,neth
N=C(C1=CC=CC=C1)C1=CC=CC=C1,-,R1206585,M24351,-,-,iminobenzylbenzene,Koerner,charochkina,A5793,-,-,-,7.48,Log unit,25,?C,N=C(c1ccccc1)c1ccccc1,neth
COC1=CC=C(C(=N)C2=CC=CC=C2)C(OC)=C1,-,R1206586,M1106682,-,-,"1-iminobenzyl-2,4-dimethoxybenzene",Koerner,charochkina,A5793,-,-,-,8.3,Log unit,25,?C,N=C(c1ccccc1)c1ccc(OC)cc1OC,neth
CC1=CC=C(C(=N)C2=CC=CC=C2)C(C)=C1,-,R1206587,M1106683,-,-,"1-iminobenzyl-2,4-dimethylbenzene",Koerner,charochkina,A5793,-,-,-,7.5,Log unit,25,?C,N=C(c1ccccc1)c1ccc(C)cc1C,neth
CC1=CC=C(C)C(=C1)C(=N)C1=CC=CC=C1,-,R1206588,M1106684,-,-,"1-iminobenzyl-2,5-dimethylbenzene",Koerner,charochkina,A5793,-,-,-,7.5,Log unit,25,?C,N=C(c1ccccc1)c1cc(ccc1C)C,neth
CC1=CC=CC(C)=C1C(=N)C1=CC=CC=C1,-,R1206589,M35608,-,-,"1-iminobenzyl-2,6-dimethylbenzene",Koerner,charochkina,A5793,-,-,-,8,Log unit,25,?C,N=C(c1ccccc1)c1c(cccc1C)C,neth
CC1=CC(=CC(C)=C1)C(=N)C1=CC=CC=C1,-,R1206590,M1106685,-,-,"1-iminobenzyl-3,5-dimethylbenzene",Koerner,charochkina,A5793,-,-,-,7.1,Log unit,25,?C,N=C(c1ccccc1)c1cc(cc(c1)C)C,neth
COC1=CC=CC=C1C(=N)C1=CC=CC=C1,-,R1206591,M1106686,-,-,1-iminobenzyl-2-methoxybenzene,Koerner,charochkina,A5793,-,-,-,7.3,Log unit,25,?C,N=C(c1ccccc1)c1ccccc1OC,neth
COC1=CC(=CC=C1)C(=N)C1=CC=CC=C1,-,R1206592,M1106687,-,-,1-iminobenzyl-3-methoxybenzene,Koerner,charochkina,A5793,-,-,-,7.7,Log unit,25,?C,N=C(c1ccccc1)c1cccc(c1)OC,neth
CC1=CC=CC=C1C(=N)C1=CC=CC=C1,-,R1206593,M35606,-,-,1-iminobenzyl-2-methylbenzene,Koerner,charochkina,A5793,-,-,-,7.5,Log unit,25,?C,N=C(c1ccccc1)c1ccccc1C,neth
COC(=N)C1=CC=CC=C1,-,R1206594,M1106688,-,-,iminomethoxymethylbenzene,Koerner,charochkina,A5793,-,-,-,6.1,Log unit,25,?C,N=C(c1ccccc1)OC,neth