"SMILES","CASRN","RECORDID","MOLECULEID","EXTERNALID","N","NAME","NAME","INTRODUCER","MODIFIER","ARTICLEID","PUBMEDID","PAGE","TABLE","pKa (smiles as ob. cond.) {measured}","UNIT {pKa (smiles as ob. cond.)}","pKa (smiles as ob. cond.) {measured, converted}","UNIT {pKa (smiles as ob. cond.)}","Ionizable centre (smiles)","IC group detected","AtomNR of IC","groupsAndICs","IC smiles given","IC group given","Temperature","UNIT {Temperature}","MultiGroupDetection","COMMENTS","INCHI_KEY"
"C[NH+](C)CCN(CC1=CSC=C1)C1=NC=CC=C1","-","R946118","M17989","-","-","2-[(2-dimethylaminoethyl)-3-thienylamino]-pyridine","-","Koerner","charochkina","A5793","-","-","-","3.94","Log unit","3.94","Log unit","n1c(N(Cc2cscc2)CC[NH+](C)C)cccc1","8","","{n=[8], nr2=[6, 15]}","S(C=C1)C=C1CN(c(ncc2)cc2)CC[N+1](C)C","n","25.0","?C","","-","RCGYDFVCAAKKNG-UHFFFAOYSA"
"CCCC1=CN=CC=C1N(C)C","-","R946119","M1106754","-","-","4-dimethylamino-3-isopropylpyridine","-","Koerner","charochkina","A5793","-","-","-","8.26","Log unit","8.26","Log unit","n1ccc(N(C)C)c(c1)CCC","0","","{n=[0], nr2=[4]}","n(ccc1N(C)C)cc1CCC","n","25.0","?C","","-","JJMQCYRFGAFXDD-UHFFFAOYSA"
"CN(C)CC1=CC=CC=N1","-","R946120","M124435","-","-","2-(DIMETHYLAMINOMETHYL)PYRIDINE","-","Koerner","charochkina","A5793","-","-","-","8.12","Log unit","8.12","Log unit","N(Cc1ncccc1)(C)C","7","","{n=[0], nr2=[7]}","n(ccc1)c(c1)CN(C)C","nr2","25.0","?C","","-","HRUBXJBPLLZTAN-UHFFFAOYSA"
"CN(C)CC1=CN=CC=C1","-","R946121","M26214","-","-","3-(DIMETHYLAMINOMETHYL)PYRIDINE","-","Koerner","charochkina","A5793","-","-","-","8.0","Log unit","8.0","Log unit","N(Cc1cnccc1)(C)C","7","","{n=[0], nr2=[7]}","n(ccc1)cc1CN(C)C","nr2","25.0","?C","","-","SLZCOYDOFRTTHF-UHFFFAOYSA"
"C[NH+](C)CC1=CN=CC=C1","-","R946122","M26214","-","-","3-(DIMETHYLAMINOMETHYL)PYRIDINE","-","Koerner","charochkina","A5793","-","-","-","3.17","Log unit","3.17","Log unit","n1cccc(c1)C[NH+](C)C","0","","{n=[0], nr2=[7]}","n(ccc1)cc1C[N+1](C)C","n","25.0","?C","","-","SLZCOYDOFRTTHF-UHFFFAOYSA"
"CN(C)CC1=CC=NC=C1","-","R946123","M124461","-","-","4-(DIMETHYLAMINOMETHYL)PYRIDINE","-","Koerner","charochkina","A5793","-","-","-","7.66","Log unit","7.66","Log unit","N(Cc1ccncc1)(C)C","5","","{n=[0], nr2=[5]}","n(ccc1CN(C)C)cc1","nr2","25.0","?C","","-","VJOFNWDVXXUHAG-UHFFFAOYSA"
"C[NH+](C)CC1=CC=NC=C1","-","R946124","M124461","-","-","4-(DIMETHYLAMINOMETHYL)PYRIDINE","-","Koerner","charochkina","A5793","-","-","-","3.39","Log unit","3.39","Log unit","n1ccc(C[NH+](C)C)cc1","0","","{n=[0], nr2=[5]}","n(ccc1C[N+1](C)C)cc1","n","25.0","?C","","-","VJOFNWDVXXUHAG-UHFFFAOYSA"
"CN(C)C1=CC=NC=C1C","-","R946125","M1106755","-","-","4-dimethylamino-3-methylpyridine","-","Koerner","charochkina","A5793","-","-","-","8.69","Log unit","8.69","Log unit","n1ccc(N(C)C)c(c1)C","0","","{n=[0], nr2=[4]}","n(ccc1N(C)C)cc1C","n","25.0","?C","","-","GAWQMBKSZUJMML-UHFFFAOYSA"
"C[NH+](C)C1=CC=C(C=C1)N=NC1=CC=CC=N1","-","R946126","M989344","-","-","2-(4-dimethylamino)phenylazopyridine","-","Koerner","charochkina","A5793","-","-","-","2.0","Log unit","2.0","Log unit","n1ccccc1N=Nc1ccc([N+](C)C)cc1","0","","{n=[0], nr2=[12]}","n(ccc1)c(c1)N=Nc(ccc2[N+1](C)C)cc2","n","25.0","?C","","-","IOJNPSPGHUEJAQ-UHFFFAOYSA"
"CN(C)C1=CC=C(C=C1)N=NC1=CC=NC=C1","-","R946127","M1106756","-","-","4-(4-dimethylamino)phenylazopyridine","-","Koerner","charochkina","A5793","-","-","-","5.4","Log unit","5.4","Log unit","n1ccc(N=Nc2ccc(N(C)C)cc2)cc1","0","","{n=[0], nr2=[10]}","n(ccc1N=Nc(ccc2N(C)C)cc2)cc1","n","25.0","?C","","-","FUVJXDPEJMGTFG-UHFFFAOYSA"
"CC(=O)N=C(N)N","-","R945928","M38840","-","-","Acetylguanidine","-","Koerner","charochkina","A5793","-","-","-","8.26","Log unit","8.26","Log unit","C(=NC(=O)C)(N)N","1","","{neth=[1], nr2=[0, 6]}","NC(=NC(=O)C)N","neth","25.0","?C","","-","NGGXACLSAZXJGM-UHFFFAOYSA"
"NN=C(N)N","-","R945929","M17552","-","-","aminoguanidine","-","Koerner","charochkina","A5793","-","-","-","3.0","Log unit","3.0","Log unit","C(=NN)(N)N","1","","{neth=[1], nr2=[0, 3, 4]}","NC(=NN)N","neth","25.0","?C","","-","HAMNKKUPIHEESI-UHFFFAOYSA"
"NC(N)=NC1=CC2=C(C=C1)C=C1C=CC=CC1=C2","-","R945930","M1106705","-","-","2-anthrylguanidine","-","Koerner","charochkina","A5793","-","-","-","11.0","Log unit","11.0","Log unit","c1(cc2cc3ccccc3cc2cc1)N=C(N)N","1","","{neth=[1], nr2=[4, 5]}","c1c(N=C(N)N)ccc2cc3ccccc3cc12","neth","25.0","?C","","-","BJAQGDAZQMYUNA-UHFFFAOYSA"
"CNC(=N)NC","-","R945931","M987722","-","-","N,N'-Dimethylguanidine","-","Koerner","charochkina","A5793","-","-","-","13.9","Log unit","13.9","Log unit","C(=N)(NC)NC","2","","{neth=[2], nr2=[1, 4]}","CNC(=N)NC","neth","25.0","?C","","-","LINDOXZENKYESA-UHFFFAOYSA"
"CN(C)C(N)=NN(=O)=O","-","R945932","M1106706","-","-","N,N-Dimethyl-N'-nitroguanidine","-","Koerner","charochkina","A5793","-","-","-","-1.3","Log unit","-1.3","Log unit","C(=NN(=O)=O)(N(C)C)N","3","","{neth=[3], nr2=[1, 5, 8]}","CN(C)C(=NN(=O)=O)N","neth","25.0","?C","","-","RIINJCKGXDWNAH-UHFFFAOYSA"
"N=C(NC1=CC=CC=C1)NC1=CC=CC=C1","-","R945933","M18397","-","-","N,N'-Dphenylguanidine","-","Koerner","charochkina","A5793","-","-","-","10.3","Log unit","10.3","Log unit","C(=N)(Nc1ccccc1)Nc1ccccc1","7","","{neth=[7], nr2=[6, 9]}","c1ccccc1NC(=N)Nc1ccccc1","neth","25.0","?C","","-","OWRCNXZUPFZXOS-UHFFFAOYSA"
"CNC(N)=N","-","R945934","M20658","-","-","METHYLGUANIDINE","-","Koerner","charochkina","A5793","-","-","-","13.7","Log unit","13.7","Log unit","C(=N)(NC)N","2","","{neth=[2], nr2=[1, 4]}","CNC(=N)N","neth","25.0","?C","","-","CHJJGSNFBQVOTG-UHFFFAOYSA"
"CNC(N)=NN(=O)=O","-","R945935","M29139","-","-","N-Methyl-N'-nitroguanidine","-","Koerner","charochkina","A5793","-","-","-","-0.9","Log unit","-0.9","Log unit","C(=NN(=O)=O)(NC)N","2","","{neth=[2], nr2=[1, 4, 7]}","CNC(=NN(=O)=O)N","neth","25.0","?C","","-","XCXKNNGWSDYMMS-UHFFFAOYSA"
"NC(N)=NC1=CC2=C(C=CC=C2)C=C1","-","R945936","M184479","-","-","2-napthylguanidine","-","Koerner","charochkina","A5793","-","-","-","10.7","Log unit","10.7","Log unit","c1(cc2ccccc2cc1)N=C(N)N","1","","{neth=[1], nr2=[4, 5]}","c1c(N=C(N)N)ccc2ccccc12","neth","25.0","?C","","-","SGKHROGKIKKECN-UHFFFAOYSA"
"NC(N)=NN(=O)=O","-","R945937","M4312","-","-","nitro-guanidine","-","Koerner","charochkina","A5793","-","-","-","-0.93","Log unit","-0.93","Log unit","C(=NN(=O)=O)(N)N","1","","{neth=[1], nr2=[0, 3, 6]}","NC(=NN(=O)=O)N","neth","25.0","?C","","-","IDCPFAYURAQKDZ-UHFFFAOYSA"
"NC(N)=NN=O","-","R945938","M23237","-","-","nitroso-Guanidine","-","Koerner","charochkina","A5793","-","-","-","2.13","Log unit","2.13","Log unit","C(=NN=O)(N)N","1","","{neth=[1], nr2=[0, 5]}","NC(=NN=O)N","neth","25.0","?C","","-","WTLKTXIHIHFSGU-UHFFFAOYSA"
"NC(N)=NC#N","-","R945939","M9102","-","-","Cyano-Guanidine","-","Koerner","charochkina","A5793","-","-","-","-0.4","Log unit","-0.4","Log unit","C(=NC#N)(N)N","1","","{neth=[1], nr2=[0, 5]}","NC(=NC#N)N","neth","25.0","?C","","-","QGBSISYHAICWAH-UHFFFAOYSA"
"CN=C(N(C)C)N(C)C","-","R945940","M1106707","-","-","pentmethylaguanidine","-","Koerner","charochkina","A5793","-","-","-","13.8","Log unit","13.8","Log unit","C(=NC)(N(C)C)N(C)C","3","","{neth=[3], nr2=[1, 6]}","CN(C)C(=NC)N(C)C","neth","25.0","?C","","-","ISNICOKBNZOJQG-UHFFFAOYSA"
"NC(N)=NC1=CC=CC=C1","-","R945941","M26086","-","-","N-Phenylguanidine","-","Koerner","charochkina","A5793","-","-","-","10.8","Log unit","10.8","Log unit","C(=Nc1ccccc1)(N)N","1","","{neth=[1], nr2=[0, 9]}","NC(=Nc1ccccc1)N","neth","25.0","?C","","-","QRJZGVVKGFIGLI-UHFFFAOYSA"
"CN(C)C(=N)N(C)C","-","R945942","M17619","-","-","N,N,N',N'-tetramethylaguanidine","-","Koerner","charochkina","A5793","-","-","-","13.9","Log unit","13.9","Log unit","C(=N)(N(C)C)N(C)C","3","","{neth=[3], nr2=[1, 5]}","CN(C)C(=N)N(C)C","neth","25.0","?C","","-","KYVBNYUBXIEUFW-UHFFFAOYSA"
"CNC(=NC)N(C)C","-","R945943","M1106708","-","-","N,N,N',N''-tetramethylaguanidine","-","Koerner","charochkina","A5793","-","-","-","13.9","Log unit","13.9","Log unit","C(=NC)(N(C)C)NC","3","","{neth=[3], nr2=[1, 6]}","CN(C)C(=NC)NC","neth","25.0","?C","","-","NCSXOMQDXHCTOY-UHFFFAOYSA"
"CNC(=N)N(C)C","-","R945944","M1106709","-","-","N,N',N'-trimethylaguanidine","-","Koerner","charochkina","A5793","-","-","-","13.9","Log unit","13.9","Log unit","C(=N)(N(C)C)NC","3","","{neth=[3], nr2=[1, 5]}","CN(C)C(=N)NC","neth","25.0","?C","","-","NQOFYFRKWDXGJP-UHFFFAOYSA"
"CNC(=NN(=O)=O)N(C)C","-","R945945","M1106710","-","-","N,N',N'-tetra-nitro-methylaguanidine","-","Koerner","charochkina","A5793","-","-","-","-0.82","Log unit","-0.82","Log unit","C(=NN(=O)=O)(N(C)C)NC","3","","{neth=[3], nr2=[1, 5, 8]}","CN(C)C(=NN(=O)=O)NC","neth","25.0","?C","","-","PCVNCAKWWPZBBY-UHFFFAOYSA"
"CNC(NC)=NC","-","R945946","M76611","-","-","N,N',N''-tetramethylaguanidine","-","Koerner","charochkina","A5793","-","-","-","13.9","Log unit","13.9","Log unit","C(=NC)(NC)NC","2","","{neth=[2], nr2=[1, 5]}","CNC(=NC)NC","neth","25.0","?C","","-","XKFPXMVATQCVKN-UHFFFAOYSA"
"OC1=CC(=C2C=NNC2=C1)S(=O)=O","-","R945947","M1107266","-","-","33 1H-6-hydroxy-4-sulfonicindazole","-","Koerner","charochkina","A5793","-","-","-","8.85","Log unit","8.85","Log unit","Oc1cc(c2cn[nH]c2c1)[S](=O)=O","10","","{n=[0, 1], sh=[5], oh=[10]}","N1N=Cc2c(S(=O)=O)cc(O)cc12","oh","25.0","?C","","-","FXPYBKNNLGDZHN-UHFFFAOYSA"
"OC1=C2NN=CC2=C(C=C1)S(=O)=O","-","R945948","M1107267","-","-","33 1H-7-hydroxy-4-sulfonicindazole","-","Koerner","charochkina","A5793","-","-","-","7.6","Log unit","7.6","Log unit","Oc1ccc(c2cn[nH]c12)[S](=O)=O","11","","{n=[0, 1], sh=[5], oh=[11]}","N1N=Cc2c(S(=O)=O)ccc(O)c12","oh","25.0","?C","","-","YJFNJMKGEXXHCI-UHFFFAOYSA"
"OC1=C2NN=CC2=CC(=C1)S(=O)=O","-","R945949","M1107268","-","-","33 1H-7-hydroxy-5-sulfonicindazole","-","Koerner","charochkina","A5793","-","-","-","8.0","Log unit","8.0","Log unit","Oc1cc(cc2cn[nH]c12)[S](=O)=O","11","","{n=[0, 1], sh=[6], oh=[11]}","N1N=Cc2cc(S(=O)=O)cc(O)c12","oh","25.0","?C","","-","GSZMGHOLENBHSL-UHFFFAOYSA"
"OC1=CC(=C2NN=CC2=C1)S(=O)=O","-","R945950","M1107269","-","-","33 1H-7-hydroxy-5-sulfonicindazole","-","Koerner","charochkina","A5793","-","-","-","8.1","Log unit","8.1","Log unit","Oc1cc2cn[nH]c2c(c1)[S](=O)=O","6","","{n=[0, 1], sh=[9], oh=[6]}","N1N=Cc2cc(O)cc(S(=O)=O)c12","oh","25.0","?C","","-","FLIUDNBBLSVDOQ-UHFFFAOYSA"
"C1=CC=NC=C1","-","R945951","M5279","-","-","pyridine","-","Koerner","charochkina","A5793","-","-","-","5.21","Log unit","5.21","Log unit","n1ccccc1","0","","{n=[0]}","n(ccc1)cc1","n","25.0","?C","","-","JUJWROOIHBZHMG-UHFFFAOYSA"
"CC(=O)NC1=CN=CC=C1","-","R945952","M5311","-","-","3-Acetamidopyridine","-","Koerner","charochkina","A5793","-","-","-","4.41","Log unit","4.41","Log unit","n1cccc(c1)NC(=O)C","0","","{n=[0], nr2=[6]}","n(ccc1)cc1NC(=O)C","n","25.0","?C","","-","JVYIBLHBCPSTKF-UHFFFAOYSA"
"CC(=O)NC1=CC=NC=C1","-","R945953","M789","-","-","4-Acetamidopyridine","-","Koerner","charochkina","A5793","-","-","-","5.87","Log unit","5.87","Log unit","n1ccc(NC(=O)C)cc1","0","","{n=[0], nr2=[4]}","n(ccc1NC(=O)C)cc1","n","25.0","?C","","-","BIJAWQUBRNHZGE-UHFFFAOYSA"
"NC1=CC=CC=N1","-","R945954","M4302","-","-","2-Aminopyridine","-","Koerner","charochkina","A5793","-","-","-","6.765","Log unit","6.765","Log unit","n1ccccc1N","0","","{n=[0], nr2=[6]}","n(ccc1)c(c1)N","n","25.0","?C","","-","ICSNLGPSRYBMBD-UHFFFAOYSA"
"CC(=O)C1=CC=CC=N1","-","R945955","M204","-","-","2-acetylpyridine","-","Koerner","charochkina","A5793","-","-","-","2.545","Log unit","2.545","Log unit","n1ccccc1C(=O)C","0","","{n=[0]}","n(ccc1)c(c1)C(=O)C","n","25.0","?C","","-","AJKVQEKCUACUMD-UHFFFAOYSA"
"CC(=O)C1=CN=CC=C1","-","R945956","M12202","-","-","3-ACETYLPYRIDINE","-","Koerner","charochkina","A5793","-","-","-","3.18","Log unit","3.18","Log unit","n1cccc(c1)C(=O)C","0","","{n=[0]}","n(ccc1)cc1C(=O)C","n","25.0","?C","","-","WEGYGNROSJDEIW-UHFFFAOYSA"
"CC(=O)C1=CC=NC=C1","-","R945957","M12430","-","-","4-acetylpyridine","-","Koerner","charochkina","A5793","-","-","-","3.38","Log unit","3.38","Log unit","n1ccc(C(=O)C)cc1","0","","{n=[0]}","n(ccc1C(=O)C)cc1","n","25.0","?C","","-","WMQUKDQWMMOHSA-UHFFFAOYSA"
"NC1=CN=CC=C1","-","R945958","M1664","-","-","3-Amino-pyridine","-","Koerner","charochkina","A5793","-","-","-","6.03","Log unit","6.03","Log unit","n1cccc(c1)N","0","","{n=[0], nr2=[6]}","n(ccc1)cc1N","n","25.0","?C","","-","CUYKNJBYIJFRCU-UHFFFAOYSA"
"NC1=CC=NC=C1","-","R945959","M7603","-","-","4-amino-pyridine","-","Koerner","charochkina","A5793","-","-","-","9.18","Log unit","9.18","Log unit","n1ccc(N)cc1","0","","{n=[0], nr2=[4]}","n(ccc1N)cc1","n","25.0","?C","","-","NUKYPUAOHBNCPY-UHFFFAOYSA"
"NC1=CC=NC=C1Br","-","R945960","M32993","-","-","4-AMINO-3-BROMOPYRIDINE","-","Koerner","charochkina","A5793","-","-","-","7.05","Log unit","7.05","Log unit","n1cc(Br)c(cc1)N","3","","{n=[3], nr2=[7]}","Br-c(cnc1)c(c1)N","n","25.0","?C","","-","DDQYSZWFFXOXER-UHFFFAOYSA"
"NC1=CC=CC(Br)=N1","-","R945961","M109534","-","-","2-AMINO-6-BROMOPYRIDINE","-","Koerner","charochkina","A5793","-","-","-","2.6","Log unit","2.6","Log unit","n1c(Br)cccc1N","2","","{n=[2], nr2=[5]}","Br-c(nc(c1)N)cc1","n","25.0","?C","","-","BKLJUYPLUWUEOQ-UHFFFAOYSA"
"NC1=CC(=NC(=C1)C([O-])=O)C([O-])=O","-","R945962","M1106721","-","-","4-amino-2,6-dicarboxypyridine","-","Koerner","charochkina","A5793","-","-","-","9.2","Log unit","9.2","Log unit","n1c(cc(N)cc1C(=O)[O-])C(=O)[O-]","0","","{n=[0], nr2=[4]}","n(c(cc1N)C(=O)[O-1])c(c1)C(=O)[O-1]","n","25.0","?C","","-","IHEBMGYEECNNJH-UHFFFAOYSA"
"NC1CC([NH2+]C(C1)C([O-])=O)C(O)=O","-","R945963","M1107270","-","-","4-amino-2,6-dicarboxypyridine","-","Koerner","charochkina","A5793","-","-","-","1.8","Log unit","1.8","Log unit","OC(=O)C1[NH2+]C([CH]C([CH]1)N)C(=O)[O-]","7","","{co2h=[7], nr2=[4]}","[n+1](c(cc1N)C(=O)O)c(c1)C(=O)[O-1]","co2h","25.0","?C","","-","OXFOJHHXVDJUFH-UHFFFAOYSA"
"NC1[NH2+]CCCC1C(O)=O","-","R945964","M1107271","-","-","2-amino-3-carboxypyridine","-","Koerner","charochkina","A5793","-","-","-","2.4","Log unit","2.4","Log unit","OC(=O)C1C([NH2+][CH][CH][CH]1)N","9","","{co2h=[9], nr2=[5]}","[n+1](ccc1)c(N)c1C(=O)O","co2h","25.0","?C","","-","BIRCSMOTNUDWIK-UHFFFAOYSA"
"NC1=C(C=CC=N1)C([O-])=O","-","R945965","M75275","-","-","2-amino-3-carboxypyridine","-","Koerner","charochkina","A5793","-","-","-","6.58","Log unit","6.58","Log unit","n1cccc(c1N)C(=O)[O-]","0","","{n=[0], nr2=[5]}","n(ccc1)c(N)c1C(=O)[O-1]","n","25.0","?C","","-","KPIVDNYJNOPGBE-UHFFFAOYSA"
"NC1CCC[NH2+]C1C(O)=O","-","R945966","M1107272","-","-","3-amino-2-carboxypyridine","-","Koerner","charochkina","A5793","-","-","-","1.5","Log unit","1.5","Log unit","OC(=O)C1[NH2+][CH][CH][CH]C1N","9","","{co2h=[9], nr2=[6]}","[n+1](ccc1)c(c1N)C(=O)O","co2h","25.0","?C","","-","MKQVGPSDKGPFJQ-UHFFFAOYSA"
"NC1=CC(=CC=N1)C([O-])=O","-","R945967","M757911","-","-","2-amino-4-carboxypyridine","-","Koerner","charochkina","A5793","-","-","-","6.37","Log unit","6.37","Log unit","n1ccc(C(=O)[O-])cc1N","0","","{n=[0], nr2=[9]}","n(ccc1C(=O)[O-1])c(c1)N","n","25.0","?C","","-","QMKZZQPPJRWDED-UHFFFAOYSA"
"NC1=CC(Cl)=CC=N1","-","R945968","M449002","-","-","2-amino-4-chloropyridine","-","Koerner","charochkina","A5793","-","-","-","5.7","Log unit","5.7","Log unit","n1ccc(Cl)cc1N","4","","{n=[4], nr2=[7]}","Cl-c(ccn1)cc1N","n","25.0","?C","","-","RQMWVVBHJMUJNZ-UHFFFAOYSA"
"NC1=NC=C(Cl)C=C1","-","R945969","M24460","-","-","2-Amino-5-chloropyridine","-","Koerner","charochkina","A5793","-","-","-","4.83","Log unit","4.83","Log unit","n1cc(Cl)ccc1N","3","","{n=[3], nr2=[5]}","Cl-c(cnc1N)cc1","n","25.0","?C","","-","MAXBVGJEFDMHNV-UHFFFAOYSA"
"NC1=CC=C(C=N1)C#N","-","R945970","M748297","-","-","2-Amino-5-cyanopyridine","-","Koerner","charochkina","A5793","-","-","-","3.41","Log unit","3.41","Log unit","n1cc(ccc1N)C#N","0","","{n=[0], nr2=[8]}","n(cc(c1)C#N)c(c1)N","n","25.0","?C","","-","KDVBYUUGYXUXNL-UHFFFAOYSA"
"NC1=NC=C(Cl)C=C1Cl","-","R945971","M73945","-","-","2-Amino-3,5-dichloropyridine","-","Koerner","charochkina","A5793","-","-","-","2.75","Log unit","2.75","Log unit","n1cc(Cl)cc(c1N)Cl","3","","{n=[3], nr2=[5]}","Cl-c(cnc1N)cc1Cl","n","25.0","?C","","-","OCWBGKZFOYMCCN-UHFFFAOYSA"
"NC1=CC(Cl)=NC(Cl)=C1","-","R945972","M748630","-","-","4-Amino-2,6-dichloropyridine","-","Koerner","charochkina","A5793","-","-","-","1.17","Log unit","1.17","Log unit","n1c(Cl)cc(cc1Cl)N","2","","{n=[2], nr2=[8]}","Cl-c(nc(Cl)c1)cc1N","n","25.0","?C","","-","WAEZOSSWRXDWAX-UHFFFAOYSA"
"NC1=CN=C(Cl)C=C1Cl","-","R945973","M1106722","-","-","5-amino-2,4-dichloropyridine","-","Koerner","charochkina","A5793","-","-","-","0.73","Log unit","0.73","Log unit","n1c(Cl)cc(c(c1)N)Cl","2","","{n=[2], nr2=[5]}","Cl-c(ncc1N)cc1Cl","n","25.0","?C","","-","FBGVTWONYOCYGA-UHFFFAOYSA"
"CC1=CC(N)=NC(C)=C1","-","R945974","M30223","-","-","2-AMINO-4,6-DIMETHYLPYRIDINE","-","Koerner","charochkina","A5793","-","-","-","7.84","Log unit","7.84","Log unit","n1c(cc(C)cc1C)N","0","","{n=[0], nr2=[5]}","n(c(cc1C)N)c(c1)C","n","25.0","?C","","-","BRBUBVKGJRPRRD-UHFFFAOYSA"
"CC1=CN=CC(C)=C1N","-","R945975","M124463","-","-","4-AMINO-3,5-DIMETHYLPYRIDINE","-","Koerner","charochkina","A5793","-","-","-","9.53","Log unit","9.53","Log unit","n1cc(c(N)c(c1)C)C","0","","{n=[0], nr2=[4]}","n(cc(c1N)C)cc1C","n","25.0","?C","","-","QFLLABOTLITCPP-UHFFFAOYSA"
"CCOC(=O)C1=C(N)N=CC=C1","-","R945976","M1106723","-","-","2-amino-3-ethoxycarbonylpyridine","-","Koerner","charochkina","A5793","-","-","-","4.73","Log unit","4.73","Log unit","n1cccc(c1N)C(=O)OCC","0","","{n=[0], nr2=[5]}","n(ccc1)c(N)c1C(=O)OCC","n","25.0","?C","","-","KIAGEDYOPMHRRB-UHFFFAOYSA"
"CCOC(=O)C1=CC=NC(N)=C1","-","R945977","M1106724","-","-","2-amino-4-ethoxycarbonylpyridine","-","Koerner","charochkina","A5793","-","-","-","5.25","Log unit","5.25","Log unit","n1ccc(C(=O)OCC)cc1N","0","","{n=[0], nr2=[11]}","n(ccc1C(=O)OCC)c(c1)N","n","25.0","?C","","-","XVBZFXZNJAFCHL-UHFFFAOYSA"
"[NH3+]CCC1=CC=CC=N1","-","R945978","M13140","-","-","2-(2-aminoethyl)-pyridine","-","Koerner","charochkina","A5793","-","-","-","3.8","Log unit","3.8","Log unit","n1ccccc1CC[NH3+]","0","","{n=[0]}","n(ccc1)c(c1)CC[N+1]","n","25.0","?C","","-","XPQIPUZPSLAZDV-UHFFFAOYSA"
"NCCC1=CC=CC=N1","-","R945979","M13140","-","-","2-(2-aminoethyl)-pyridine","-","Koerner","charochkina","A5793","-","-","-","9.75","Log unit","9.75","Log unit","NCCc1ncccc1","8","","{n=[0], nr2=[8]}","n(ccc1)c(c1)CCN","nr2","25.0","?C","","-","XPQIPUZPSLAZDV-UHFFFAOYSA"
"NC1=CC([O-])=CC=N1","-","R945980","M1106725","-","-","2-amino-4-hydroxypyridine","-","Koerner","charochkina","A5793","-","-","-","10.7","Log unit","10.7","Log unit","n1ccc([O-])cc1N","0","","{n=[0], nr2=[7]}","n(ccc1[O-1])c(c1)N","n","25.0","?C","","-","HQNIMNQVKVPZES-UHFFFAOYSA"
"NC1=CC=CC([O-])=N1","-","R945981","M92059","-","-","2-amino-6-hydroxypyridine","-","Koerner","charochkina","A5793","-","-","-","11.38","Log unit","11.38","Log unit","n1c(cccc1N)[O-]","0","","{n=[0], nr2=[7]}","n(c(cc1)[O-1])c(c1)N","n","25.0","?C","","-","DMIHQARPYPNHJD-UHFFFAOYSA"
"NC1=C([O-])N=CC=C1","-","R945982","M748346","-","-","3-Amino-2-hydroxypyridine","-","Koerner","charochkina","A5793","-","-","-","12.57","Log unit","12.57","Log unit","n1cccc(c1[O-])N","0","","{n=[0], nr2=[7]}","n(ccc1)c([O-1])c1N","n","25.0","?C","","-","VTSFNCCQCOEPKF-UHFFFAOYSA"
"NC1=CN=CC=C1[O-]","-","R945983","M1106726","-","-","3-amino-4-hydroxypyridine","-","Koerner","charochkina","A5793","-","-","-","11.38","Log unit","11.38","Log unit","n1ccc([O-])c(c1)N","0","","{n=[0], nr2=[7]}","n(ccc1[O-1])cc1N","n","25.0","?C","","-","OIIBRAGQGFLUFI-UHFFFAOYSA"
"NC1C[NH2+]CCC1O","-","R945984","M1107273","-","-","3-amino-4-hydroxypyridine","-","Koerner","charochkina","A5793","-","-","-","3.84","Log unit","3.84","Log unit","OC1[CH][CH][NH2+][CH]C1N","4","","{nr2=[7], oh=[4]}","[n+1](ccc1O)cc1N","oh","25.0","?C","","-","PSSWASGEGXCINO-UHFFFAOYSA"