"SMILES","CASRN","RECORDID","MOLECULEID","EXTERNALID","N","NAME","NAME","INTRODUCER","MODIFIER","ARTICLEID","PUBMEDID","PAGE","TABLE","pKa (smiles as ob. cond.) {measured}","UNIT {pKa (smiles as ob. cond.)}","pKa (smiles as ob. cond.) {measured, converted}","UNIT {pKa (smiles as ob. cond.)}","Ionizable centre (smiles)","IC group detected","AtomNR of IC","groupsAndICs","IC smiles given","IC group given","Temperature","UNIT {Temperature}","MultiGroupDetection","COMMENTS","INCHI_KEY"
"CC1=CC(O)=CC(C)=C1","108-68-9","R1166046","M10784","-","-","3,5-Dimethylphenol","-","Koerner","Koerner","A5912","-","-","-","10.19","Log unit","10.19","Log unit","Oc1cc(cc(c1)C)C","","0","{phenol=[0]}","","phenol","25.0","?C","","-","TUAMRELNJMMDMT-UHFFFAOYSA"
"OC1=CC=CC(Cl)=C1","108-43-0","R1166047","M3973","-","-","3-Chlorophenol","-","Koerner","Koerner","A5912","-","-","-","9.12","Log unit","9.12","Log unit","Oc1cc(Cl)ccc1","","7","{phenol=[7]}","","phenol","","-","","-","HORNXRXVQWOLPJ-UHFFFAOYSA"
"CC1=CC=CC(O)=C1","108-39-4","R1166048","M9841","-","-","3-cresol","-","Koerner","Koerner","A5912","-","-","-","10.09","Log unit","10.09","Log unit","Oc1cc(ccc1)C","","0","{phenol=[0]}","","phenol","25.0","?C","","-","RLSSMJSEOOYNOY-UHFFFAOYSA"
"CCOC(=O)C1=CC=C(O)C=C1","120-47-8","R1166049","M7615","-","-","4-HYDROXYBENZOIC ACID,ETHYL ESTER","-","Koerner","Koerner","A5912","-","-","-","8.34","Log unit","8.34","Log unit","Oc1ccc(C(=O)OCC)cc1","","11","{phenol=[11]}","","phenol","25.0","?C","","-","NUVBSKCKDOMJSU-UHFFFAOYSA"
"CC(=O)C1=CC=CC(O)=C1","121-71-1","R1166050","M6485","-","-","3-hydroxyacetophenone","-","Koerner","Koerner","A5912","-","-","-","9.25","Log unit","9.25","Log unit","Oc1cc(ccc1)C(=O)C","","0","{phenol=[0]}","","phenol","25.0","?C","","-","LUJMEECXHPYQOF-UHFFFAOYSA"
"NC1=CC=C(O)C=C1","123-30-8","R1166051","M8656","-","-","4-AMINO-PHENOL","-","Koerner","Koerner","A5912","-","-","-","10.45","Log unit","10.45","Log unit","Oc1ccc(N)cc1","","7","{phenol=[7]}","","phenol","","-","","-","PLIKAWJENQZMHA-UHFFFAOYSA"
"OC1=CC=C(C=O)C=C1","123-08-0","R1166052","M9708","-","-","4-hydroxybenzaldehyde","-","Koerner","Koerner","A5912","-","-","-","7.61","Log unit","7.61","Log unit","Oc1ccc(cc1)C=O","","0","{phenol=[0]}","","phenol","25.0","?C","","-","RGHHSNMVTDWUBI-UHFFFAOYSA"
"CCC1=CC=C(O)C=C1","123-07-9","R1166053","M4171","-","-","4-Ethylphenol","-","Koerner","Koerner","A5912","-","-","-","10.0","Log unit","10.0","Log unit","Oc1ccc(cc1)CC","","0","{phenol=[0]}","","phenol","25.0","?C","","-","HXDOZKJGKXYMEW-UHFFFAOYSA"
"COC1=CC=C(O)C=C1","150-76-5","R1166054","M7663","-","-","4-Methoxyphenol","-","Koerner","Koerner","A5912","-","-","-","10.1","Log unit","10.1","Log unit","Oc1ccc(OC)cc1","","8","{phenol=[8]}","","phenol","25.0","?C","","-","NWVVVBRKAWDGAB-UHFFFAOYSA"
"COC1=CC(O)=CC=C1","150-19-6","R1166055","M436","-","-","3-Methoxyphenol","-","Koerner","Koerner","A5912","-","-","-","9.65","Log unit","9.65","Log unit","Oc1cc(OC)ccc1","","8","{phenol=[8]}","","phenol","25.0","?C","","-","ASHGTJPOSUFTGB-UHFFFAOYSA"
"OC1=CC=C(F)C=C1","371-41-5","R1166056","M9737","-","-","4-fluorophenol","-","Koerner","Koerner","A5912","-","-","-","9.91","Log unit","9.91","Log unit","Oc1ccc(F)cc1","","7","{phenol=[7]}","","phenol","25.0","?C","","-","RHMPLDJJXGPMEX-UHFFFAOYSA"
"OC1=CC=CC(F)=C1","372-20-3","R1166057","M10413","-","-","3-fluorophenol","-","Koerner","Koerner","A5912","-","-","-","9.21","Log unit","9.21","Log unit","Oc1cc(F)ccc1","","7","{phenol=[7]}","","phenol","25.0","?C","","-","SJTBRFHBXDZMPS-UHFFFAOYSA"
"OC1=CC=C(C=C1)C(F)(F)F","402-45-9","R1166058","M640","-","-","4-Trifluoromethylphenol","-","Koerner","Koerner","A5912","-","-","-","8.675","Log unit","8.675","Log unit","Oc1ccc(C(F)(F)F)cc1","","10","{phenol=[10]}","","phenol","25.0","?C","","-","BAYGVMXZJBFEMB-UHFFFAOYSA"
"COC1=CC(OC)=CC(O)=C1","500-99-2","R1166059","M13153","-","-","3,5-Dimethoxyphenol","-","Koerner","Koerner","A5912","-","-","-","9.34","Log unit","9.34","Log unit","Oc1cc(cc(OC)c1)OC","","8","{phenol=[8]}","","phenol","25.0","?C","","-","XQDNFAMOIPNVES-UHFFFAOYSA"
"OC1=CC=C(I)C=C1","540-38-5","R1166060","M11943","-","-","4-Iodophenol","-","Koerner","Koerner","A5912","-","-","-","9.21","Log unit","9.21","Log unit","Oc1ccc(I)cc1","","7","{phenol=[7]}","","phenol","25.0","?C","","-","VSMDINRNYYEDRN-UHFFFAOYSA"
"OC1=CC=CC(=C1)[N+]([O-])=O","554-84-7","R1166061","M10051","-","-","3-nitrophenol","-","Koerner","Koerner","A5912","-","-","-","8.36","Log unit","8.36","Log unit","Oc1cc([N+](=O)[O-])ccc1","","9","{phenol=[9]}","","phenol","","-","","-","RTZZCYNQPHTPPL-UHFFFAOYSA"
"OC1=CC(=C(C=C1)[N+]([O-])=O)[N+]([O-])=O","577-71-9","R1166062","M228","-","-","3,4-dinitrophenol","-","Koerner","Koerner","A5912","-","-","-","5.42","Log unit","5.42","Log unit","Oc1ccc(c([N+](=O)[O-])c1)[N+](=O)[O-]","","9","{phenol=[9]}","","phenol","25.0","?C","","-","AKLOLDQYWQAREW-UHFFFAOYSA"
"OC1=CC(=CC=C1)C1=CC=CC=C1","580-51-8","R1166063","M10945","-","-","3-PHENYLPHENOL","-","Koerner","Koerner","A5912","-","-","-","9.64","Log unit","9.64","Log unit","Oc1cc(ccc1)c1ccccc1","","0","{phenol=[0]}","","phenol","23.0","?C","","-","UBXYXCRCOKCZIT-UHFFFAOYSA"
"CC(C)(C)C1=CC=CC(O)=C1","585-34-2","R1166064","M1745","-","-","3-(1,1-DIMETHYLETHYL)-PHENOL","-","Koerner","Koerner","A5912","-","-","-","10.119","Log unit","10.119","Log unit","Oc1cc(ccc1)C(C)(C)C","","0","{phenol=[0]}","","phenol","25.0","?C","","-","CYEKUDPFXBLGHH-UHFFFAOYSA"
"OC1=CC(=CC(=C1)[N+]([O-])=O)[N+]([O-])=O","586-11-8","R1166065","M10996","-","-","3,5-Dinitrophenol","-","Koerner","Koerner","A5912","-","-","-","6.69","Log unit","6.69","Log unit","Oc1cc(cc([N+](=O)[O-])c1)[N+](=O)[O-]","","9","{phenol=[9]}","","phenol","25.0","?C","","-","UEMBNLWZFIWQFL-UHFFFAOYSA"
"OC1=CC(Cl)=CC(Cl)=C1","591-35-5","R1166066","M11881","-","-","3,5-Dichlorophenol","-","Koerner","Koerner","A5912","-","-","-","8.18","Log unit","8.18","Log unit","Oc1cc(cc(Cl)c1)Cl","","7","{phenol=[7]}","","phenol","","-","","-","VPOMSPZBQMDLTM-UHFFFAOYSA"
"NC1=CC(O)=CC=C1","591-27-5","R1166067","M1697","-","-","3-AMINO-PHENOL","-","Koerner","Koerner","A5912","-","-","-","9.86","Log unit","9.86","Log unit","Oc1cc(N)ccc1","","7","{phenol=[7]}","","phenol","20.0","?C","","-","CWLKGDAVCFYWJK-UHFFFAOYSA"
"OC1=CC=CC(Br)=C1","591-20-8","R1166068","M6891","-","-","3-Bromophenol","-","Koerner","Koerner","A5912","-","-","-","9.031","Log unit","9.031","Log unit","Oc1cc(Br)ccc1","","7","{phenol=[7]}","","phenol","25.0","?C","","-","MNOJRWOWILAHAV-UHFFFAOYSA"
"OC1=CC(Cl)=C(Cl)C(Cl)=C1","609-19-8","R1166069","M22362","-","-","3,4,5-TRICHLOROPHENOL","-","Koerner","Koerner","A5912","-","-","-","7.84","Log unit","7.84","Log unit","Oc1cc(c(Cl)c(c1)Cl)Cl","","8","{phenol=[8]}","","phenol","25.0","?C","","-","GBNHEBQXJVDXSW-UHFFFAOYSA"
"CC(C)C1=CC=CC(O)=C1","618-45-1","R1166070","M11780","-","-","3-Isopropylphenol","-","Koerner","Koerner","A5912","-","-","-","10.16","Log unit","10.16","Log unit","Oc1cc(ccc1)C(C)C","","0","{phenol=[0]}","","phenol","20.0","?C","","-","VLJSLTNSFSOYQR-UHFFFAOYSA"
"CCC1=CC=CC(O)=C1","620-17-7","R1166071","M3927","-","-","3-ethylphenol","-","Koerner","Koerner","A5912","-","-","-","9.9","Log unit","9.9","Log unit","Oc1cc(ccc1)CC","","0","{phenol=[0]}","","phenol","","-","","-","HMNKTRSOROOSPP-UHFFFAOYSA"
"CCOC1=CC(O)=CC=C1","621-34-1","R1166072","M11535","-","-","3-Ethoxyphenol","-","Koerner","Koerner","A5912","-","-","-","9.65","Log unit","9.65","Log unit","Oc1cc(OCC)ccc1","","9","{phenol=[9]}","","phenol","25.0","?C","","-","VBIKLMJHBGFTPV-UHFFFAOYSA"
"CCOC1=CC=C(O)C=C1","622-62-8","R1166073","M6239","-","-","4-Ethoxyphenol","-","Koerner","Koerner","A5912","-","-","-","10.13","Log unit","10.13","Log unit","Oc1ccc(OCC)cc1","","9","{phenol=[9]}","","phenol","25.0","?C","","-","LKVFCSWBKOVHAH-UHFFFAOYSA"
"OC1=CC(Br)=CC(Br)=C1","626-41-5","R1166074","M22827","-","-","3,5-DIBROMOPHENOL","-","Koerner","Koerner","A5912","-","-","-","8.06","Log unit","8.06","Log unit","Oc1cc(cc(Br)c1)Br","","7","{phenol=[7]}","","phenol","25.0","?C","","-","PZFMWYNHJFZBPO-UHFFFAOYSA"
"OC1=CC=CC(I)=C1","626-02-8","R1166075","M2995","-","-","3-iodophenol","-","Koerner","Koerner","A5912","-","-","-","9.033","Log unit","9.033","Log unit","Oc1cc(I)ccc1","","7","{phenol=[7]}","","phenol","25.0","?C","","-","FXTKWBZFNQHAAO-UHFFFAOYSA"
"CCCC1=CC=C(O)C=C1","645-56-7","R1166076","M5671","-","-","4-propylphenol","-","Koerner","Koerner","A5912","-","-","-","10.34","Log unit","10.34","Log unit","Oc1ccc(cc1)CCC","","0","{phenol=[0]}","","phenol","20.0","?C","","-","KLSLBUSXWBJMEC-UHFFFAOYSA"
"CCC1=CC(C)=CC(O)=C1","698-71-5","R1166077","M23362","-","-","3-ETHYL-5-METHYLPHENOL","-","Koerner","Koerner","A5912","-","-","-","10.1","Log unit","10.1","Log unit","Oc1cc(cc(c1)C)CC","","0","{phenol=[0]}","","phenol","28.0","?C","","-","XTCHLXABLZQNNN-UHFFFAOYSA"
"OC1=CC=C(C=C1)C#N","767-00-0","R1166078","M1680","-","-","4-cyanophenol","-","Koerner","Koerner","A5912","-","-","-","7.967","Log unit","7.967","Log unit","Oc1ccc(C#N)cc1","","8","{phenol=[8]}","","phenol","25.0","?C","","-","CVNOWLNNPYYEOH-UHFFFAOYSA"
"OC1=CC=CC(=C1)C#N","873-62-1","R1166079","M10337","-","-","3-Cyanophenol","-","Koerner","Koerner","A5912","-","-","-","8.61","Log unit","8.61","Log unit","Oc1cc(C#N)ccc1","","8","{phenol=[8]}","","phenol","25.0","?C","","-","SGHBRHKBCLLVCI-UHFFFAOYSA"
"CC1=CC2=CC3=CC=CC=C3N=C2C=C1","-","R946628","M67191","-","-","2-Methylacridine","-","Koerner","charochkina","A5793","-","-","-","5.74","Log unit","5.74","Log unit","n1c2ccccc2cc2c1ccc(c2)C","4","","{n=[4]}","c(ccc1nc2cc3)cc1cc2cc3C","n","25.0","?C","","-","HVZWBVZEZZJOKQ-UHFFFAOYSA"
"CC1=CC=CC2=CC3=CC=CC=C3N=C12","-","R946629","M56382","-","-","4-Methylacridine","-","Koerner","charochkina","A5793","-","-","-","5.6","Log unit","5.6","Log unit","n1c2ccccc2cc2c1c(ccc2)C","4","","{n=[4]}","c(ccc1nc2c(c3)C)cc1cc2cc3","n","25.0","?C","","-","SKLZCRNUJKGGRW-UHFFFAOYSA"
"CNC1=C2C=CC=CC2=NC2=CC=CC=C12","-","R946630","M35642","-","-","9-methylaminoacridine","-","Koerner","charochkina","A5793","-","-","-","10.43","Log unit","10.43","Log unit","n1c2ccccc2c(c2c1cccc2)NC","4","","{n=[4], nr2=[14]}","c(ccc1nc2cc3)cc1c(c2cc3)NC","n","25.0","?C","","-","BSDDSRKVZZVVQX-UHFFFAOYSA"
"C1CCC2=NC3=CC=CC=C3C=C2C1","-","R946631","M72681","-","-","1,2,3,4-Tetrahydroacridine","-","Koerner","charochkina","A5793","-","-","-","6.38","Log unit","6.38","Log unit","n1c2ccccc2cc2c1CCCC2","4","","{n=[4]}","c(ccc1nc2CC3)cc1cc2CC3","n","25.0","?C","","-","RXBYRTSOWREATF-UHFFFAOYSA"
"[O-]S(=O)(=O)C1=CC2=CC3=C(C=CC=C3)N=C2C=C1","-","R946632","M1106953","-","-","2-sulphoacridine","-","Koerner","charochkina","A5793","-","-","-","4.8","Log unit","4.8","Log unit","n1c2c(cc(S(=O)(=O)[O-])cc2)cc2ccccc12","15","","{n=[15]}","S(=O)(=O)([O-1])-c(cc(cc(ccc1)c2c1)c3n2)cc3","n","25.0","?C","","-","VPDHPIXLWQMFFQ-UHFFFAOYSA"
"C1=CC=C2C(C=CC3=C2C=CC=N3)=C1","-","R946633","M3691","-","-","Benzo[f]quinoline","-","Koerner","charochkina","A5793","-","-","-","4.625","Log unit","4.625","Log unit","n1c2c(c3ccccc3cc2)ccc1","13","","{n=[13]}","c(ccc1cc2)cc1c(ccc3)c2n3","n","25.0","?C","","-","HCAUQPZEWLULFJ-UHFFFAOYSA"
"C1=CC2=C(C=C1)C1=C(C=C2)N=CC=C1","-","R946634","M3691","-","-","7-aminobenzo[f]quinoline","-","Koerner","charochkina","A5793","-","-","-","4.8","Log unit","4.8","Log unit","n1cccc2c1ccc1c2cccc1","13","","{n=[13]}","c(cc(c1cc2)c(ccc3)c2c3)cn1","n","25.0","?C","","-","HCAUQPZEWLULFJ-UHFFFAOYSA"
"C1=CC2=CC3=C(C=C2C=C1)N=CC=C3","-","R946635","M1003739","-","-","benzo[g]quinoline","-","Koerner","charochkina","A5793","-","-","-","5.01","Log unit","5.01","Log unit","n1cccc2c1cc1ccccc1c2","0","","{n=[0]}","n(ccc1)c(cc(ccc2)c3c2)c1c3","n","25.0","?C","","-","RFQDDXWZZVRLKO-UHFFFAOYSA"
"NC1=CC2=CC3=CC=CC=C3C=C2N=C1","-","R946636","M1106954","-","-","3-aminobenzo[g]quinoline","-","Koerner","charochkina","A5793","-","-","-","4.74","Log unit","4.74","Log unit","n1c2cc3ccccc3cc2cc(N)c1","13","","{n=[13], nr2=[8]}","c(ccc1cc2cc3N)cc1cc2nc3","n","25.0","?C","","-","GMIFQTVYDNZJLL-UHFFFAOYSA"
"C1=CC2=C(C=C1)C1=C(C=CC=N1)C=C2","-","R946637","M19791","-","-","Benzo[h]quinoline","-","Koerner","charochkina","A5793","-","-","-","3.725","Log unit","3.725","Log unit","n1cccc2c1c1ccccc1cc2","0","","{n=[0]}","n(ccc1)c(c(ccc2)c(c2)c3)c1c3","n","25.0","?C","","-","WZJYKHNJTSNBHV-UHFFFAOYSA"
"C1=CC2=C(C=C1)C1=CC=CC=C1C=N2","-","R946638","M9636","-","-","phenanthridine","-","Koerner","charochkina","A5793","-","-","-","4.475","Log unit","4.475","Log unit","n1cc2ccccc2c2ccccc12","5","","{n=[5]}","c(ccc1cn2)cc1c(ccc3)c2c3","n","25.0","?C","","-","RDOWQLZANAYVLL-UHFFFAOYSA"
"C1=CC2=NC3=CC=CC=C3N=C2C=C1","-","R946639","M8453","-","-","Phenazine","-","Koerner","charochkina","A5793","-","-","-","0.9","Log unit","0.9","Log unit","n1c2ccccc2nc2c1cccc2","4","","{n=[4, 10]}","c(ccc1nc2cc3)cc1nc2cc3","n","25.0","?C","true","-","PCNDJXKNXGMECE-UHFFFAOYSA"
"NC1=CC2=NC3=CC=CC=C3N=C2C=C1","-","R946640","M120412","-","-","2-Aminophenazine","-","Koerner","charochkina","A5793","-","-","-","4.71","Log unit","4.71","Log unit","n1c2ccccc2nc2c1ccc(c2)N","4","","{n=[4, 10], nr2=[14]}","c(ccc1nc2cc3)cc1nc2cc3N","n","25.0","?C","true","-","RHQTYDDJBYBCQV-UHFFFAOYSA"
"NC1=CC2=NC3=C(C=C(N)C=C3)N=C2C=C1","-","R946641","M120132","-","-","2,7-Diaminophenazine","-","Koerner","charochkina","A5793","-","-","-","4.29","Log unit","4.29","Log unit","n1c2cc(ccc2nc2c1ccc(N)c2)N","6","","{n=[6, 15], nr2=[4, 11]}","c(c(cc1)N)c(nc(ccc2N)c3c2)c1n3","n","25.0","?C","true","-","ZNXLTODDKYXLAD-UHFFFAOYSA"
"OC1=CC=CC2=NC3=CC=CC=C3N=C12","-","R946642","M21280","-","-","1-Hydroxyphenazine","-","Koerner","charochkina","A5793","-","-","-","1.61","Log unit","1.61","Log unit","n1c2ccccc2nc2c1cccc2O","4","","{n=[4, 10], oh=[14]}","c(ccc1nc2cc3)cc1nc2c(c3)O","n","25.0","?C","true","-","SVRNCBGWUMMBQB-UHFFFAOYSA"
"OC1=CC2=NC3=CC=CC=C3N=C2C=C1","-","R946643","M147706","-","-","2-hydroxyphenazine","-","Koerner","charochkina","A5793","-","-","-","2.39","Log unit","2.39","Log unit","n1c2ccccc2nc2c1ccc(c2)O","4","","{n=[4, 10], oh=[14]}","c(ccc1nc2cc3)cc1nc2cc3O","n","25.0","?C","true","-","RETSEGNZNUBJRB-UHFFFAOYSA"
"C1=CC2=CC3=C(C=CC4=C3C=CC=C4)N=C2C=C1","-","R946644","M19784","-","-","Benz[a]acridine","-","Koerner","charochkina","A5793","-","-","-","4.7","Log unit","4.7","Log unit","n1c2ccccc2cc2c1ccc1ccccc21","5","","{n=[5]}","c(ccc1)c(nc(ccc2cc3)c4c2cc3)c1c4","n","25.0","?C","","-","JEGZRTMZYUDVBF-UHFFFAOYSA"
"OC1=CC=C(N=NC2=NC=CC=C2)C2=C1C=CC=C2","-","R946645","M1106955","-","-","4-(2-pyridlazo)-1-naphthol","-","Koerner","charochkina","A5793","-","-","-","3.0","Log unit","3.0","Log unit","n1c(N=Nc2ccc(O)c3ccccc23)cccc1","8","","{n=[8], oh=[1]}","c1(O)ccc(N=Nc3ncccc3)c2ccccc12","n","25.0","?C","","-","PHXBEBHRRKEUOJ-UHFFFAOYSA"
"OC1=C(N=NC2=NC=CC=C2)C2=C(C=CC=C2)C=C1","-","R946646","M745790","-","-","1-(2-pyridlazo)-2-naphthol","-","Koerner","charochkina","A5793","-","-","-","2.9","Log unit","2.9","Log unit","n1c(N=Nc2c(O)ccc3ccccc23)cccc1","0","","{n=[0], oh=[6]}","n1c(N=Nc2c(O)ccc3ccccc23)cccc1","n","25.0","?C","","-","LLYOXZQVOKALCD-UHFFFAOYSA"
"OC1C(Cl)CC(CC1[N+]([O-])=O)[N+]([O-])=O","946-31-6","R1150470","M740622","-","-","NSC3 2-chloro-4,6-bis(hydroxy(oxido)amino)phenol","-","Koerner","Koerner","A5912","-","-","-","2.1","Log unit","2.1","Log unit","OC1C(CC(CC1[N+](=O)[O-])[N+](=O)[O-])Cl","phenol","12","{phenol=[12]}","OC1=C(Cl)C=C(C=C1[N+]([O-])=O)[N+]([O-])=O","","","-","","-","FCBRKXDCIXCVSG-UHFFFAOYSA"
"OC1CCC(CC1C=O)[N+]([O-])=O","97-51-8","R1150471","M1154392","-","-","NSC881 2-hydroxy-5-(hydroxy(oxido)amino)benzaldehyde","-","Koerner","Koerner","A5912","-","-","-","5.51","Log unit","5.51","Log unit","OC1CCC(CC1C=O)[N+](=O)[O-]","phenol","8","{phenol=[8]}","OC1=CC=C(C=C1C=O)[N+]([O-])=O","","","-","","-","RWHCSZMUVQYXPM-UHFFFAOYSA"
"OC1CCC(CC1Cl)[N+]([O-])=O","619-08-9","R1150472","M740612","-","-","NSC1316 2-chloro-4-(hydroxy(oxido)amino)phenol","-","Koerner","Koerner","A5912","-","-","-","5.45","Log unit","5.45","Log unit","OC1C(CC([N+](=O)[O-])CC1)Cl","phenol","8","{phenol=[8]}","OC1=C(Cl)C=C(C=C1)[N+]([O-])=O","","","-","","-","IJZPUFLFZZODRP-UHFFFAOYSA"
"OC1CCC(CC1)[N+]([O-])=O","100-02-7","R1150473","M740504","-","-","NSC1317 4-(hydroxy(oxido)amino)phenol","-","Koerner","Koerner","A5912","-","-","-","7.15","Log unit","7.15","Log unit","OC1CCC([N+](=O)[O-])CC1","phenol","7","{phenol=[7]}","OC1=CC=C(C=C1)[N+]([O-])=O","","","-","","-","ZJTAOPVJQSDQTJ-UHFFFAOYSA"
"OC1CCC(CC1[N+]([O-])=O)[N+]([O-])=O","51-28-5","R1150474","M740562","-","-","NSC1532 2,4-bis(hydroxy(oxido)amino)phenol","-","Koerner","Koerner","A5912","-","-","-","4.09","Log unit","4.09","Log unit","OC1CCC(CC1[N+](=O)[O-])[N+](=O)[O-]","phenol","12","{phenol=[12]}","OC1=CC=C(C=C1[N+]([O-])=O)[N+]([O-])=O","","","-","","-","MYLJYZKSBFEFMZ-UHFFFAOYSA"
"OC1CCCCC1C1CCCCC1","90-43-7","R1150475","M77560","-","-","NSC1548 [1,1'-biphenyl]-2-ol","-","Koerner","Koerner","A5912","-","-","-","9.97","Log unit","9.97","Log unit","OC1C(C2CCCCC2)CCCC1","phenol","3","{phenol=[3]}","OC1=C(C=CC=C1)C2=CC=CC=C2","","","-","","-","YTWWBKKPWACPPB-UHFFFAOYSA"
"CC1CCC(O)CC1C","95-65-8","R1150476","M30577","-","-","NSC1549 3,4-dimethylphenol","-","Koerner","Koerner","A5912","-","-","-","10.4","Log unit","10.4","Log unit","OC1CCC(C(C)C1)C","phenol","8","{phenol=[8]}","CC1=C(C)C=C(O)C=C1","","","-","","-","ZBAXJUPCYVIBSP-UHFFFAOYSA"
"OC1CCCC(C1)[N+]([O-])=O","554-84-7","R1150477","M740515","-","-","NSC1551 3-(hydroxy(oxido)amino)phenol","-","Koerner","Koerner","A5912","-","-","-","8.36","Log unit","8.36","Log unit","OC1CC([N+](=O)[O-])CCC1","phenol","9","{phenol=[9]}","OC1=CC=CC(=C1)[N+]([O-])=O","","","-","","-","TYQJRJDPCKPRFL-UHFFFAOYSA"
"OC1CCCCC1[N+]([O-])=O","88-75-5","R1150478","M740570","-","-","NSC1552 2-(hydroxy(oxido)amino)phenol","-","Koerner","Koerner","A5912","-","-","-","7.23","Log unit","7.23","Log unit","OC1C([N+](=O)[O-])CCCC1","phenol","5","{phenol=[5]}","OC1=C(C=CC=C1)[N+]([O-])=O","","","-","","-","HCANSMXQRLLYOH-UHFFFAOYSA"
"CCOC1CCCCC1O","94-71-3","R1150479","M27655","-","-","NSC1809 2-ethoxyphenol","-","Koerner","Koerner","A5912","-","-","-","10.1","Log unit","10.1","Log unit","OC1C(OCC)CCCC1","phenol","9","{phenol=[9]}","CCOC1=C(O)C=CC=C1","","","-","","-","PKOQGLKMAXRWPD-UHFFFAOYSA"
"OC1CCC(CC1)C1CCCCC1","92-69-3","R1150480","M71259","-","-","NSC1858 [1,1'-biphenyl]-4-ol","-","Koerner","Koerner","A5912","-","-","-","9.55","Log unit","9.55","Log unit","OC1CCC(C2CCCCC2)CC1","phenol","5","{phenol=[5]}","OC1=CC=C(C=C1)C2=CC=CC=C2","","","-","","-","AFKMHDZOVNDWLO-UHFFFAOYSA"
"CC(C)C1CCC(O)CC1","99-89-8","R1150481","M29555","-","-","NSC1888 4-isopropylphenol","-","Koerner","Koerner","A5912","-","-","-","10.2","Log unit","10.2","Log unit","OC1CCC(C(C)C)CC1","phenol","7","{phenol=[7]}","CC(C)C1=CC=C(O)C=C1","","","-","","-","DKKRDMLKVSKFMJ-UHFFFAOYSA"
"CC1CC(CC(C1O)[N+]([O-])=O)[N+]([O-])=O","534-52-1","R1150482","M740599","-","-","NSC2082 2,4-bis(hydroxy(oxido)amino)-6-methylphenol","-","Koerner","Koerner","A5912","-","-","-","4.31","Log unit","4.31","Log unit","OC1C(CC(CC1[N+](=O)[O-])[N+](=O)[O-])C","phenol","12","{phenol=[12]}","CC1=C(O)C(=CC(=C1)[N+]([O-])=O)[N+]([O-])=O","","","-","","-","KUMULJABIDHZDL-UHFFFAOYSA"
"CC1CCCC(C)C1O","576-26-1","R1150483","M30108","-","-","NSC2123 2,6-dimethylphenol","-","Koerner","Koerner","A5912","-","-","-","10.6","Log unit","10.6","Log unit","OC1C(C)CCCC1C","phenol","8","{phenol=[8]}","CC1=C(O)C(=CC=C1)C","","","-","","-","MOISVRZIQDQVPF-UHFFFAOYSA"
"OC1CCC(CC1)C=O","123-08-0","R1150484","M740508","-","-","NSC2127 4-hydroxybenzaldehyde","-","Koerner","Koerner","A5912","-","-","-","7.61","Log unit","7.61","Log unit","OC1CCC(C=O)CC1","phenol","8","{phenol=[8]}","OC1=CC=C(C=O)C=C1","","","-","","-","QKPFGUJMNAMMPD-UHFFFAOYSA"