"SMILES","CASRN","RECORDID","MOLECULEID","EXTERNALID","N","NAME","NAME","INTRODUCER","MODIFIER","ARTICLEID","PUBMEDID","PAGE","TABLE","pKa (smiles as ob. cond.) {measured}","UNIT {pKa (smiles as ob. cond.)}","pKa (smiles as ob. cond.) {measured, converted}","UNIT {pKa (smiles as ob. cond.)}","Ionizable centre (smiles)","IC group detected","AtomNR of IC","groupsAndICs","IC smiles given","IC group given","Temperature","UNIT {Temperature}","MultiGroupDetection","COMMENTS","INCHI_KEY"
"CCC1CCCN1C","-","R945778","M1107245","-","-","Pyrolidine,2-ethyl-1-methyl-","-","Koerner","charochkina","A5793","-","-","-","9.8","Log unit","9.8","Log unit","N1(CCCC1CC)C","3","","{nr2=[3]}","C(CC1)N(C)C1CC","nr2","25.0","?C","","-","IDQXZLKEWHBPCA-UHFFFAOYSA"
"OC(CN1CCCC1)CN1CCCC1","-","R945779","M1107246","-","-","Pyrrolidine,1(2-hydroxy-3-pyrrolidine-1-yl)propyl-:","-","Koerner","charochkina","A5793","-","-","-","9.43","Log unit","9.43","Log unit","N1(CCCC1)CC(O)CN1CCCC1","3","","{nr2=[3, 9], oh=[7]}","C(CC1)N(C1)CC(O)CN(CC2)CC2","nr2","25.0","?C","true","-","IMHRMXJMEAPBMG-UHFFFAOYSA"
"OC(CN1CCCC1)C[NH+]1CCCC1","-","R945780","M1107246","-","-","Pyrrolidine,1(2-hydroxy-3-pyrrolidine-1-yl)propyl-:","-","Koerner","charochkina","A5793","-","-","-","8.05","Log unit","8.05","Log unit","N1(CCCC1)CC(O)C[NH+]1CCCC1","3","","{nr2=[3, 9], oh=[7]}","C(CC1)N(C1)CC(O)C[N+1](CC2)CC2","nr2","25.0","?C","true","-","IMHRMXJMEAPBMG-UHFFFAOYSA"
"COC1=CC=C(C=C1)C1CCCN1C","-","R945781","M269790","-","-","Pyrrolidine,2-(p-methoxyphenyl)-1-methyl-","-","Koerner","charochkina","A5793","-","-","-","8.9","Log unit","8.9","Log unit","N1(C(c2ccc(cc2)OC)CCC1)C","5","","{nr2=[5]}","c(cc(c1)C(N(C2)C)CC2)c(c1)OC","nr2","25.0","?C","","-","SDEOOZDCHZPZSN-UHFFFAOYSA"
"CN1CCCC1","-","R945782","M19070","-","-","Pyrrolidine, 1-methyl-","-","Koerner","charochkina","A5793","-","-","-","10.39","Log unit","10.39","Log unit","N1(CCCC1)C","3","","{nr2=[3]}","C(CC1)N(C1)C","nr2","25.0","?C","","-","AVFZOVWCLRSYKC-UHFFFAOYSA"
"CN1CCCC1C1=CC=CC=C1","-","R945783","M495833","-","-","Pyrrolidine, 1-methyl-2-phenyl-","-","Koerner","charochkina","A5793","-","-","-","8.8","Log unit","8.8","Log unit","N1(C(c2ccccc2)CCC1)C","5","","{nr2=[5]}","c(ccc1C(N(C2)C)CC2)cc1","nr2","25.0","?C","","-","RUJFIXHHAWJMRM-UHFFFAOYSA"
"CCCC1CCCN1C","-","R945784","M1107247","-","-","Pyrrolidine, 1-methyl-2-n-propyl-","-","Koerner","charochkina","A5793","-","-","-","9.8","Log unit","9.8","Log unit","N1(CCCC1CCC)C","3","","{nr2=[3]}","C(CC1)N(C)C1CCC","nr2","25.0","?C","","-","JDRHIFCXIYRAKL-UHFFFAOYSA"
"CN1CCCC1C1=CN=CC=C1","-","R945785","M10504","-","-","Pyrrolidine, 1-methyl-2-(3-pyridy)-:","-","Koerner","charochkina","A5793","-","-","-","8.04","Log unit","8.04","Log unit","N1(C(c2cnccc2)CCC1)C","7","","{n=[0], nr2=[7]}","n(ccc1)cc1C(N(C2)C)CC2","nr2","25.0","?C","","-","SNICXCGAKADSCV-UHFFFAOYSA"
"C[NH+]1CCCC1C1=CN=CC=C1","-","R945786","M10504","-","-","Pyrrolidine, 1-methyl-2-(3-pyridy)-:","-","Koerner","charochkina","A5793","-","-","-","3.4","Log unit","3.4","Log unit","n1cccc(c1)C1[NH+](CCC1)C","0","","{n=[0], nr2=[7]}","n(ccc1)cc1C([N+1](C2)C)CC2","n","25.0","?C","","-","SNICXCGAKADSCV-UHFFFAOYSA"
"C1CCN(C1)C1=CC=CC=C1","-","R945787","M28979","-","-","Pyrrolidine, 1-pheny-","-","Koerner","charochkina","A5793","-","-","-","4.3","Log unit","4.3","Log unit","N1(c2ccccc2)CCCC1","4","","{nr2=[4]}","c(ccc1N(CC2)CC2)cc1","nr2","25.0","?C","","-","VDQQJMHXZCMNMU-UHFFFAOYSA"
"C1CNC(C1)C1=CC=CC=C1","-","R945788","M24325","-","-","PYRROLIDINE, 2-PHENYL-","-","Koerner","charochkina","A5793","-","-","-","9.6","Log unit","9.6","Log unit","N1C(c2ccccc2)CCC1","5","","{nr2=[5]}","c(ccc1C(NC2)CC2)cc1","nr2","25.0","?C","","-","JUTDHSGANMHVIC-UHFFFAOYSA"
"C(CN1CCCC1)N1CCCC1","-","R945789","M1107248","-","-","Pyrrolidine, 1-(2-pyrrolidine-1-yl)ethyl-:","-","Koerner","charochkina","A5793","-","-","-","9.17","Log unit","9.17","Log unit","N1(CCCC1)CCN1CCCC1","3","","{nr2=[3, 7]}","C(CC1)N(C1)CCN(CC2)CC2","nr2","25.0","?C","true","-","HBIXFRSMLXSLQI-UHFFFAOYSA"
"C(CN1CCCC1)CN1CCCC1","-","R945790","M1107249","-","-","Pyrrolidine, 1-(3-pyrrolidin-1-yl)propyl-","-","Koerner","charochkina","A5793","-","-","-","10.04","Log unit","10.04","Log unit","N1(CCCC1)CCCN1CCCC1","3","","{nr2=[3, 8]}","C(CC1)N(C1)CCCN(CC2)CC2","nr2","25.0","?C","true","-","JMZLEIAXMAFQAO-UHFFFAOYSA"
"C1CNC(C1)C1=CC=CS1","-","R945791","M1107250","-","-","Pyrrolidine, 2-(2-thienyl)-:","-","Koerner","charochkina","A5793","-","-","-","9.35","Log unit","9.35","Log unit","N1C(c2sccc2)CCC1","6","","{nr2=[6]}","S(C=C1)C(=C1)C(NC2)CC2","nr2","25.0","?C","","-","BNUVOMNEUJWHCF-UHFFFAOYSA"
"CC1=CC=C(C=C1)N1CCCC1","-","R945792","M1107251","-","-","Pyrrolidine, 1-(p-tolyl)-","-","Koerner","charochkina","A5793","-","-","-","4.7","Log unit","4.7","Log unit","N1(c2ccc(cc2)C)CCCC1","4","","{nr2=[4]}","c(cc(c1)N(CC2)CC2)c(c1)C","nr2","25.0","?C","","-","STRWKFUEXQHMFW-UHFFFAOYSA"
"CC1=CC=C(C=C1)C1CCCN1","-","R945793","M1107252","-","-","Pyrroolidine, 2-(p-tolyl)","-","Koerner","charochkina","A5793","-","-","-","9.95","Log unit","9.95","Log unit","N1CCCC1c1ccc(C)cc1","0","","{nr2=[0]}","N(CC1)C(C1)-c(ccc2C)cc2","nr2","25.0","?C","","-","TXFISDWSKUHPET-UHFFFAOYSA"
"CC1CN(C)CC1C","-","R945794","M1107253","-","-","1,3,4-Trimethyl1-1-pyrrolinium perchlorate:","-","Koerner","charochkina","A5793","-","-","-","9.6","Log unit","9.6","Log unit","N1(CC(C)C(C1)C)C","1","","{nr2=[1]}","C(N(C1)C)C(C)C1C","nr2","25.0","?C","","-","SIBLCLDNTGUERI-UHFFFAOYSA"
"[NH3+]CCNCC1=CC=CS1","-","R945795","M1107254","-","-","Thiophene, 2-(2-aminoethylaminomethyl)-:","-","Koerner","charochkina","A5793","-","-","-","6.3","Log unit","6.3","Log unit","N(Cc1sccc1)CC[NH3+]","3","","{nr2=[3]}","S1C(CNCC[N+1])=CC=C1","nr2","25.0","?C","","-","PMVKNSKIASQUCS-UHFFFAOYSA"
"NCC1=CC=CS1","-","R945796","M83095","-","-","Thiophene, 2-aminomethyl-","-","Koerner","charochkina","A5793","-","-","-","8.92","Log unit","8.92","Log unit","NCc1sccc1","6","","{nr2=[6]}","S(C=C1)C(=C1)CN","nr2","25.0","?C","","-","FKKJJPMGAWGYPN-UHFFFAOYSA"
"C1COCCN1","-","R945797","M13655","-","-","Morpholine:","-","Koerner","charochkina","A5793","-","-","-","8.315001","Log unit","8.315001","Log unit","N1CCOCC1","3","","{nr2=[3]}","O(CCN1)CC1","nr2","25.0","?C","","-","YNAVUWVOSKDBBP-UHFFFAOYSA"
"CC(=O)C(CCN1CCOCC1)(C1=CC=CC=C1)C1=CC=CC=C1","-","R945798","M1107255","-","-","Morpholine, N-(3-acetyl-3,3-diphenyl)propyl-","-","Koerner","charochkina","A5793","-","-","-","6.83","Log unit","6.83","Log unit","N1(CCC(c2ccccc2)(c2ccccc2)C(=O)C)CCOCC1","16","","{nr2=[16]}","c(ccc1C(c(ccc2)cc2)(C(=O)C)CCN(CCO3)CC3)cc1","nr2","25.0","?C","","-","CVVQPIGXTWGPDJ-UHFFFAOYSA"
"CC(=O)C(CN1CCOCC1)C1=CC=CC=C1","-","R945799","M1107256","-","-","Morpholine, N-(2_acetyl-2-phenyl)ethyl-","-","Koerner","charochkina","A5793","-","-","-","6.23","Log unit","6.23","Log unit","N1(CC(c2ccccc2)C(=O)C)CCOCC1","9","","{nr2=[9]}","c(ccc1C(C(=O)C)CN(CCO2)CC2)cc1","nr2","25.0","?C","","-","NYYRZNUHYNAJIK-UHFFFAOYSA"
"C=CCN1CCOCC1","-","R945800","M1107257","-","-","Morpholine, N-allyl-","-","Koerner","charochkina","A5793","-","-","-","7.02","Log unit","7.02","Log unit","N1(CCOCC1)CC=C","3","","{nr2=[3]}","O(CCN1CC=C)CC1","nr2","25.0","?C","","-","SUSANAYXICMXBL-UHFFFAOYSA"
"[NH3+]CCN1CCOCC1","-","R945801","M26129","-","-","Morpholine, N-(2-amino)ethyl-","-","Koerner","charochkina","A5793","-","-","-","4.84","Log unit","4.84","Log unit","N1(CCOCC1)CC[NH3+]","3","","{nr2=[3]}","O(CCN1CC[N+1])CC1","nr2","25.0","?C","","-","RWIVICVCHVMHMU-UHFFFAOYSA"
"O=C(CC1=CC=CC=C1)C(CN1CCOCC1)C1=CC=CC=C1","-","R945802","M1107258","-","-","Morpholine, N-(2-benzylcarbonyl-2-phenyl)ethyl","-","Koerner","charochkina","A5793","-","-","-","6.17","Log unit","6.17","Log unit","N1(CC(C(=O)Cc2ccccc2)c2ccccc2)CCOCC1","15","","{nr2=[15]}","c(ccc1CC(=O)C(c(ccc2)cc2)CN(CCO3)CC3)cc1","nr2","25.0","?C","","-","ZVCWZEDGNKJDSI-UHFFFAOYSA"
"CC(O)C[NH+](CCCN1CCOCC1)CC(C)O","-","R945803","M1107259","-","-","Mokrpholine, N-[3-(bis-2-hydroxpropyl)aminopropyl]-","-","Koerner","charochkina","A5793","-","-","-","5.5","Log unit","5.5","Log unit","N1(CCOCC1)CCC[NH+](CC(O)C)CC(O)C","3","","{nr2=[3, 7], oh=[10, 14]}","O(CCN1CCC[N+1](CC(O)C)CC(O)C)CC1","nr2","25.0","?C","true","-","REDLMXNXEJVVCU-UHFFFAOYSA"
"N#CC(CCN1CCOCC1)(C1=CC=CC=C1)C1=CC=CC=C1","-","R945804","M759551","-","-","Morpholine, N-(3-cyano-3,3-diphenyl)propyl-","-","Koerner","charochkina","A5793","-","-","-","6.04","Log unit","6.04","Log unit","N1(CCC(c2ccccc2)(c2ccccc2)C#N)CCOCC1","15","","{nr2=[15]}","c(ccc1C(-c(ccc2)cc2)(C#N)CCN(CCO3)CC3)cc1","nr2","25.0","?C","","-","DPKWJKWZGPRUPI-UHFFFAOYSA"
"N#CCN1CCOCC1","-","R945805","M30644","-","-","Morpholine, N-cyanomethyl-","-","Koerner","charochkina","A5793","-","-","-","2.0","Log unit","2.0","Log unit","N1(CCOCC1)CC#N","3","","{nr2=[3]}","O(CCN1CC#N)CC1","nr2","25.0","?C","","-","OOSOCAXREAGIGA-UHFFFAOYSA"
"CC(CC(C#N)(C1=CC=CC=C1)C1=CC=CC=C1)N1CCOCC1","-","R945806","M1107260","-","-","Morpholine, N-(3-cyano-1-methyl-3.3-diphenyl)propyl-","-","Koerner","charochkina","A5793","-","-","-","6.05","Log unit","6.05","Log unit","N1(C(CC(c2ccccc2)(c2ccccc2)C#N)C)CCOCC1","15","","{nr2=[15]}","c(ccc1C(-c(ccc2)cc2)(C#N)CC(N(CCO3)CC3)C)cc1","nr2","25.0","?C","","-","AVTGNCPHDBVRPD-UHFFFAOYSA"
"O=C(CCN1CCOCC1)C(C1=CC=CC=C1)C1=CC=CC=C1","-","R945807","M1107261","-","-","Morpholine, N-(2-diphenylmethlcarbonyl)ethyl-","-","Koerner","charochkina","A5793","-","-","-","6.39","Log unit","6.39","Log unit","N1(CCC(=O)C(c2ccccc2)c2ccccc2)CCOCC1","15","","{nr2=[15]}","c(ccc1C(-c(ccc2)cc2)C(=O)CCN(CCO3)CC3)cc1","nr2","25.0","?C","","-","OPQDQDZJKGWRSK-UHFFFAOYSA"
"C(CN1CCOCC1)C(C1=CC=CC=C1)C1=CC=CC=C1","-","R945808","M1107262","-","-","Morpholine, N-(3,3-diphenyl)propyl-","-","Koerner","charochkina","A5793","-","-","-","7.2","Log unit","7.2","Log unit","N1(CCC(c2ccccc2)c2ccccc2)CCOCC1","13","","{nr2=[13]}","c(ccc1C(-c(ccc2)cc2)CCN(CCO3)CC3)cc1","nr2","25.0","?C","","-","HRFZBLRYMCCDPV-UHFFFAOYSA"
"CCCC(=O)C(CCN1CCOCC1)(C1=CC=CC=C1)C1=CC=CC=C1","-","R945809","M1107263","-","-","Morpholine, N-(3,3-diphenyl-3-propylcarbonyl)propyl-","-","Koerner","charochkina","A5793","-","-","-","7.17","Log unit","7.17","Log unit","N1(CCC(c2ccccc2)(c2ccccc2)C(=O)CCC)CCOCC1","18","","{nr2=[18]}","c(ccc1C(-c(ccc2)cc2)(C(=O)CCC)CCN(CCO3)CC3)cc1","nr2","25.0","?C","","-","RLJKCKOGDZVROP-UHFFFAOYSA"
"CCN1CCOCC1","-","R945810","M18335","-","-","Morpholine, N-ethyl-","-","Koerner","charochkina","A5793","-","-","-","7.67","Log unit","7.67","Log unit","N1(CCOCC1)CC","3","","{nr2=[3]}","O(CCN1CC)CC1","nr2","25.0","?C","","-","HVCNXQOWACZAFN-UHFFFAOYSA"
"CCC(=O)C(CCN1CCOCC1)(C1=CC=CC=C1)C1=CC=CC=C1","-","R945811","M41844","-","-","Morpholine, N-(3-ethylcarbonyl-3,3-diphenyl)propyl-","-","Koerner","charochkina","A5793","-","-","-","6.95","Log unit","6.95","Log unit","N1(CCOCC1)CCC(C(=O)CC)(c1ccccc1)c1ccccc1","3","","{nr2=[3]}","O1CCN(CCC(C(=O)CC)(c2ccccc2)c2ccccc2)CC1","nr2","25.0","?C","","-","SXKOCXTXIUNMEN-UHFFFAOYSA"
"CCC(=O)C(CC(C)N1CCOCC1)(C1=CC=CC=C1)C1=CC=CC=C1","-","R945812","M6345","-","-","Morpholine, N-(3-ethylcarbonyl-1-methyl-3,3-diphenyl)propyl-","-","Koerner","charochkina","A5793","-","-","-","6.68","Log unit","6.68","Log unit","N1(C(CC(c2ccccc2)(c2ccccc2)C(=O)CC)C)CCOCC1","17","","{nr2=[17]}","c(ccc1C(c(ccc2)cc2)(C(=O)CC)CC(N(CCO3)CC3)C)cc1","nr2","25.0","?C","","-","LOXCOAXRHYDLOW-UHFFFAOYSA"
"CCC(=O)C(C(C)CN1CCOCC1)(C1=CC=CC=C1)C1=CC=CC=C1","-","R945813","M1107264","-","-","Morpholine, N-(3-ethylcarbonyl-2-methyl-3,3-dipheyl)propyl-","-","Koerner","charochkina","A5793","-","-","-","7.12","Log unit","7.12","Log unit","N1(CC(C(c2ccccc2)(c2ccccc2)C(=O)CC)C)CCOCC1","17","","{nr2=[17]}","c(ccc1C(c(ccc2)cc2)(C(=O)CC)C(CN(CCO3)CC3)C)cc1","nr2","25.0","?C","","-","JKELWZXAVUOKIQ-UHFFFAOYSA"
"OC(CN1CCOCC1)CN1CCOCC1","-","R945814","M78359","-","-","Morpholine, N-(2-hydroxy-3-morpholin)propyl-:","-","Koerner","charochkina","A5793","-","-","-","6.68","Log unit","6.68","Log unit","N1(CCOCC1)CC(O)CN1CCOCC1","3","","{nr2=[3, 8], oh=[6]}","O(CCN1CC(O)CN(CCO2)CC2)CC1","nr2","25.0","?C","true","-","YTAILAZJMHRYOR-UHFFFAOYSA"
"OC(CN1CCOCC1)C[NH+]1CCOCC1","-","R945815","M78359","-","-","Morpholine, N-(2-hydroxy-3-morpholin)propyl-:","-","Koerner","charochkina","A5793","-","-","-","5.3","Log unit","5.3","Log unit","N1(CCOCC1)CC(O)C[NH+]1CCOCC1","3","","{nr2=[3, 8], oh=[6]}","O(CCN1CC(O)C[N+1](CCO2)CC2)CC1","nr2","25.0","?C","true","-","YTAILAZJMHRYOR-UHFFFAOYSA"
"CN1CCOCC1","-","R945816","M10411","-","-","Morpholine, N-methyl-","-","Koerner","charochkina","A5793","-","-","-","7.38","Log unit","7.38","Log unit","N1(CCOCC1)C","3","","{nr2=[3]}","O(CCN1C)CC1","nr2","25.0","?C","","-","SJRJJKPEHAURKC-UHFFFAOYSA"
"CC(CC(C1=CC=CC=C1)C1=CC=CC=C1)N1CCOCC1","-","R945817","M1006792","-","-","Morpholine, N-(1-methyl-3,3-diphenyl)propyl-","-","Koerner","charochkina","A5793","-","-","-","6.85","Log unit","6.85","Log unit","N1(C(CC(c2ccccc2)c2ccccc2)C)CCOCC1","13","","{nr2=[13]}","c(ccc1C(-c(ccc2)cc2)CC(N(CCO3)CC3)C)cc1","nr2","25.0","?C","","-","VWWFWWPIVDCWBX-UHFFFAOYSA"
"C(CN1CCOCC1)N1CCOCC1","-","R945818","M25660","-","-","Morphoilne, N-(2-morpholino)ethyl-","-","Koerner","charochkina","A5793","-","-","-","6.35","Log unit","6.35","Log unit","N1(CCOCC1)CCN1CCOCC1","3","","{nr2=[3, 6]}","O(CCN1CCN(CCO2)CC2)CC1","nr2","25.0","?C","true","-","QRQKCMFVJWNKQI-UHFFFAOYSA"
"C(CN1CCOCC1)CN1CCOCC1","-","R945819","M88117","-","-","Morpholine, N-(3-morpholino)propyal-","-","Koerner","charochkina","A5793","-","-","-","7.0","Log unit","7.0","Log unit","N1(CCOCC1)CCCN1CCOCC1","3","","{nr2=[3, 7]}","O(CCN1CCCN(CCO2)CC2)CC1","nr2","25.0","?C","true","-","PENRYFPQHOTBJV-UHFFFAOYSA"
"C1CNCCN1","-","R945820","M3320","-","-","Piperazine:","-","Koerner","charochkina","A5793","-","-","-","9.5","Log unit","9.5","Log unit","N1CCNCC1","0","","{nr2=[0, 3]}","N(CCN1)CC1","nr2","25.0","?C","true","-","GLUUGHFHXGJENI-UHFFFAOYSA"
"C1C[NH2+]CCN1","-","R945821","M3320","-","-","piperazine","-","Koerner","charochkina","A5793","-","-","-","5.86","Log unit","5.86","Log unit","N1CC[NH2+]CC1","3","","{nr2=[3]}","[N+1](CCN1)CC1","nr2","25.0","?C","","-","GLUUGHFHXGJENI-UHFFFAOYSA"
"CC1CNC(C)CN1","-","R945822","M7563","-","-","Piperazine, trans-2,5-dimethyl-","-","Koerner","charochkina","A5793","-","-","-","9.66","Log unit","9.66","Log unit","N1CC(NCC1C)C","0","","{nr2=[0, 3]}","N(CC(N1)C)C(C1)C","nr2","25.0","?C","true","-","NSMWYRLQHIXVAP-UHFFFAOYSA"
"CC1C[NH2+]C(C)CN1","-","R945823","M7563","-","-","Piperazine, trans-2,5-dimethyl-","-","Koerner","charochkina","A5793","-","-","-","5.2","Log unit","5.2","Log unit","N1C(C[NH2+]C(C1)C)C","3","","{nr2=[3]}","[N+1](CC(N1)C)C(C1)C","nr2","25.0","?C","","-","NSMWYRLQHIXVAP-UHFFFAOYSA"
"CN1CCN(CC1)C(C1=CC=C(C)C=C1)C1=CC=C(C)C=C1","-","R945824","M1107265","-","-","Piperazine, 1-methyl-4-(4_methylbenzhydry)-","-","Koerner","charochkina","A5793","-","-","-","8.21","Log unit","8.21","Log unit","N1(C(c2ccc(cc2)C)c2ccc(C)cc2)CCN(C)CC1","8","","{nr2=[8, 11]}","c(c(cc1)C)cc1C(N(CCN2C)CC2)-c(ccc3C)cc3","nr2","25.0","?C","true","-","OQMLADDXXQPXKE-UHFFFAOYSA"
"[NH3+]CCC1=CNC2=C1C=C(O)C=C2","-","R945825","M9542","-","-","3-(2-aminoethyl)-5-hydroxyindole","-","Koerner","charochkina","A5793","-","-","-","10.0","Log unit","10.0","Log unit","Oc1ccc2[nH]cc(c2c1)CC[NH3+]","3","","{n=[11], oh=[3]}","c1cc(O)cc2C(CC[N+1])=CNc12","oh","25.0","?C","","-","QZAYGJVTTNCVMB-UHFFFAOYSA"
"NC1=CC=CC2=C1C(=O)C1=CC=CC=C1C2=O","-","R945826","M17675","-","-","1-AMINOANTHRAQUINONE","-","Koerner","charochkina","A5793","-","-","-","0.44","Log unit","0.44","Log unit","Nc1cccc2C(=O)c3ccccc3C(=O)c12","1","","{nr2=[1]}","c1(N)cccc2C(=O)c3ccccc3C(=O)c12","nr2","25.0","?C","","-","KHUFHLFHOQVFGB-UHFFFAOYSA"
"CNC1=CC=CC2=C1C(=O)C1=CC=CC=C1C2=O","-","R945827","M17671","-","-","DISPERSE RED 9","-","Koerner","charochkina","A5793","-","-","-","0.56","Log unit","0.56","Log unit","N(c1cccc2C(=O)c3ccccc3C(=O)c12)C","1","","{nr2=[1]}","c1(NC)cccc2C(=O)c3ccccc3C(=O)c12","nr2","25.0","?C","","-","SVTDYSXXLJYUTM-UHFFFAOYSA"
"NC1=CC(=CC2=CC(=CC(O)=C12)S([O-])(=O)=O)S([O-])(=O)=O","-","R945628","M17938","-","-","1-amino-8-hydroxy-3,6-disulphonaphthalene","-","Koerner","charochkina","A5793","-","-","-","8.827","Log unit","8.827","Log unit","Oc1cc(S(=O)(=O)[O-])cc2c1c(cc(c2)S(=O)(=O)[O-])N","7","","{nr2=[11], oh=[7]}","S(=O)(=O)([O-1])-c(cc(O)c1c(c2)N)cc1cc2S(=O)(=O)[O-1]","oh","25.0","?C","","-","APRRQJCCBSJQOQ-UHFFFAOYSA"
"NC1=C2C=CC=CC2=CC(I)=C1","-","R945629","M1107167","-","-","1-amino-3-iodo-naphthalene","-","Koerner","charochkina","A5793","-","-","-","2.82","Log unit","2.82","Log unit","Nc1cc(I)cc2c1cccc2","4","","{nr2=[4]}","I-c(cc(N)c1cc2)cc1cc2","nr2","25.0","?C","","-","WVPWDYVGTSSPHY-UHFFFAOYSA"
"NC1=CC2=C(C=CC=C2)C(I)=C1","-","R945630","M1107168","-","-","2-amino-4-iodo-naphthalene","-","Koerner","charochkina","A5793","-","-","-","3.41","Log unit","3.41","Log unit","Nc1cc(I)c2ccccc2c1","5","","{nr2=[5]}","I-c(cc(c1)N)c(ccc2)c1c2","nr2","25.0","?C","","-","QENWAEWTEWRKJN-UHFFFAOYSA"
"COC1=CC2=CC=CC=C2C(N)=C1","-","R945631","M1107169","-","-","1-amino-3-methoxynaphthalene","-","Koerner","charochkina","A5793","-","-","-","3.26","Log unit","3.26","Log unit","Nc1c2ccccc2cc(c1)OC","6","","{nr2=[6]}","c(ccc1c(c2)N)cc1cc2OC","nr2","25.0","?C","","-","DWDXXQHBIDECOI-UHFFFAOYSA"
"COC1=CC2=CC=CC(N)=C2C=C1","-","R945632","M1107170","-","-","1-amino-6-methoxynaphthalene","-","Koerner","charochkina","A5793","-","-","-","3.9","Log unit","3.9","Log unit","Nc1cccc2c1ccc(c2)OC","3","","{nr2=[3]}","c(cc(N)c1cc2)cc1cc2OC","nr2","25.0","?C","","-","CMKNPNIVLBZAPR-UHFFFAOYSA"
"COC1=CC2=C(N)C=CC=C2C=C1","-","R945633","M1107171","-","-","1-amino-7-methoxynaphthalene","-","Koerner","charochkina","A5793","-","-","-","4.07","Log unit","4.07","Log unit","Nc1cccc2c1cc(OC)cc2","3","","{nr2=[3]}","c(cc(N)c1cc2OC)cc1cc2","nr2","25.0","?C","","-","PYPBAWHTDYSLKJ-UHFFFAOYSA"
"COC1=CC(N)=CC2=CC=CC=C12","-","R945634","M1107172","-","-","2-amino-4-methoxy-naphthalene","-","Koerner","charochkina","A5793","-","-","-","4.05","Log unit","4.05","Log unit","Nc1cc2ccccc2c(c1)OC","12","","{nr2=[12]}","c(ccc1c(c2)OC)cc1cc2N","nr2","25.0","?C","","-","SFKZPTYRENGBTJ-UHFFFAOYSA"
"COC1=CC2=C(C=C1)C=C(N)C=C2","-","R945635","M1107173","-","-","2-amino-6-methoxy-naphthalene","-","Koerner","charochkina","A5793","-","-","-","4.64","Log unit","4.64","Log unit","Nc1ccc2cc(ccc2c1)OC","12","","{nr2=[12]}","c(cc(cc(c1)OC)c2c1)c(c2)N","nr2","25.0","?C","","-","MJWDIGUUVRCTFY-UHFFFAOYSA"
"COC1=CC2=C(C=CC(N)=C2)C=C1","-","R945636","M1107174","-","-","2-amino-7-methoxy-naphthalene","-","Koerner","charochkina","A5793","-","-","-","4.19","Log unit","4.19","Log unit","Nc1ccc2ccc(OC)cc2c1","12","","{nr2=[12]}","c(cc(ccc1OC)c2c1)c(c2)N","nr2","25.0","?C","","-","OJRPPBXHGGSZIV-UHFFFAOYSA"
"COC(=O)C1=CC2=CC=CC=C2C(N)=C1","-","R945637","M1107175","-","-","1-amino-3-methoxycarbonylnaphthalene","-","Koerner","charochkina","A5793","-","-","-","3.12","Log unit","3.12","Log unit","Nc1c2ccccc2cc(C(=O)OC)c1","14","","{nr2=[14]}","c(ccc1cc2C(=O)OC)cc1c(c2)N","nr2","25.0","?C","","-","ITAMEXWVHLBNFG-UHFFFAOYSA"
"COC(=O)C1=CC(N)=CC2=CC=CC=C12","-","R945638","M1107176","-","-","2-amino-4-methoxycarbonylnaphthalene","-","Koerner","charochkina","A5793","-","-","-","3.38","Log unit","3.38","Log unit","Nc1cc2ccccc2c(c1)C(=O)OC","14","","{nr2=[14]}","c(ccc1c(c2)C(=O)OC)cc1cc2N","nr2","25.0","?C","","-","SXKPYDRBFCWMNT-UHFFFAOYSA"
"CC1=CC2=CC=CC=C2C(N)=C1","-","R945639","M1107177","-","-","1-amino-3-methylnaphthalene","-","Koerner","charochkina","A5793","-","-","-","3.96","Log unit","3.96","Log unit","Nc1c2ccccc2cc(c1)C","6","","{nr2=[6]}","c(ccc1c(c2)N)cc1cc2C","nr2","25.0","?C","","-","MTEAUBISQMFXCE-UHFFFAOYSA"