Smiles,CASRN,Record ID,Molecule ID,External ID,N,Name,Introducer,Modifer,Article ID,PUBMED ID,PAGE,TABLE,pKa,pKa Unit,Temperature,Temperature Unit,Ionizable center smiles,IC group
CC1=CC(=CC=C1)P(O)([O-])=O,-,R936963,M1050536,-,-,m-tolylphosphonic acid,Koerner,charochkina,A5793,-,-,-,7.44,Log unit,25,?C,OP(=O)([O-])c1cccc(c1)C,{po2h=2}
OP([O-])(=O)C1=CC=CC=C1C1=CC=CC=C1,-,R936964,M1050537,-,-,2-biphenylphosphonic acid,Koerner,charochkina,A5793,-,-,-,8.13,Log unit,25,?C,OP(=O)(c1ccccc1c1ccccc1)[O-],{po2h=3}
CC1=CC=C(C=C1)P(O)(O)=O,-,R936965,M1050538,-,-,p-tolylphosphonic acid,Koerner,charochkina,A5793,-,-,-,1.81,Log unit,25,?C,OP(=O)(O)c1ccc(C)cc1,{po2h=2}
CC1=CC=C(C=C1)P(O)([O-])=O,-,R936966,M1050538,-,-,p-tolylphosphonic acid,Koerner,charochkina,A5793,-,-,-,7.33,Log unit,25,?C,OP(=O)([O-])c1ccc(C)cc1,{po2h=2}
OP(O)(=O)C1=CC=CC=C1F,-,R936967,M1050539,-,-,o-fluorophenylphosphonic acid,Koerner,charochkina,A5793,-,-,-,1.64,Log unit,25,?C,OP(=O)(O)c1ccccc1F,{po2h=2}
OP([O-])(=O)C1=CC=CC=C1F,-,R936968,M1050539,-,-,o-fluorophenylphosphonic acid,Koerner,charochkina,A5793,-,-,-,6.8,Log unit,25,?C,OP(=O)([O-])c1ccccc1F,{po2h=2}
OP(O)(=O)C1=CC=CC=C1Cl,-,R936969,M1050540,-,-,o-chlorophenylphosphonic acid,Koerner,charochkina,A5793,-,-,-,1.63,Log unit,25,?C,OP(=O)(c1c(Cl)cccc1)O,{po2h=8}
OP([O-])(=O)C1=CC=CC=C1Cl,-,R936970,M1050540,-,-,o-chlorophenylphosphonic acid,Koerner,charochkina,A5793,-,-,-,6.98,Log unit,25,?C,OP(=O)(c1c(Cl)cccc1)[O-],{po2h=8}
OP(O)(=O)C1=CC(Cl)=CC=C1,-,R936971,M30290,-,-,m-chlorophenylphosphonic acid,Koerner,charochkina,A5793,-,-,-,1.55,Log unit,25,?C,OP(=O)(c1cc(Cl)ccc1)O,{po2h=9}
OP([O-])(=O)C1=CC(Cl)=CC=C1,-,R936972,M30290,-,-,m-chlorophenylphosphonic acid,Koerner,charochkina,A5793,-,-,-,6.65,Log unit,25,?C,OP(=O)(c1cc(Cl)ccc1)[O-],{po2h=9}
OP(O)(=O)C1=CC=C(Cl)C=C1,-,R936973,M30291,-,-,p-chlorophenylphosphonic acid,Koerner,charochkina,A5793,-,-,-,1.665,Log unit,25,?C,OP(=O)(c1ccc(Cl)cc1)O,{po2h=7}
OP([O-])(=O)C1=CC=C(Cl)C=C1,-,R936974,M30291,-,-,p-chlorophenylphosphonic acid,Koerner,charochkina,A5793,-,-,-,6.75,Log unit,25,?C,OP(=O)(c1ccc(Cl)cc1)[O-],{po2h=7}
OP([O-])(=O)C1=C(Cl)C=CC(Cl)=C1,-,R936975,M1050541,-,-,"2,5-di-chlorophenylphosphonic acid",Koerner,charochkina,A5793,-,-,-,6.63,Log unit,25,?C,OP(=O)(c1c(Cl)ccc(Cl)c1)[O-],{po2h=3}
OP(O)(=O)C1=CC=CC=C1Br,-,R936976,M1050542,-,-,o-bromophenylphosphonic acid,Koerner,charochkina,A5793,-,-,-,1.64,Log unit,25,?C,OP(=O)(c1c(Br)cccc1)O,{po2h=8}
OP([O-])(=O)C1=CC=CC=C1Br,-,R936977,M1050542,-,-,o-bromophenylphosphonic acid,Koerner,charochkina,A5793,-,-,-,7,Log unit,25,?C,OP(=O)(c1c(Br)cccc1)[O-],{po2h=8}
OP(O)(=O)C1=CC(Br)=CC=C1,-,R936978,M1050543,-,-,m-bromophenylphosphonic acid,Koerner,charochkina,A5793,-,-,-,1.45,Log unit,25,?C,OP(=O)(c1cc(Br)ccc1)O,{po2h=9}
OP([O-])(=O)C1=CC(Br)=CC=C1,-,R936979,M1050543,-,-,m-bromophenylphosphonic acid,Koerner,charochkina,A5793,-,-,-,6.69,Log unit,25,?C,OP(=O)(c1cc(Br)ccc1)[O-],{po2h=10}
OP(O)(=O)C1=CC=C(Br)C=C1,-,R936980,M34007,-,-,p-bromophenylphosphonic acid,Koerner,charochkina,A5793,-,-,-,1.875,Log unit,25,?C,OP(=O)(c1ccc(Br)cc1)O,{po2h=7}
OP([O-])(=O)C1=CC=C(Br)C=C1,-,R936981,M34007,-,-,p-bromophenylphosphonic acid,Koerner,charochkina,A5793,-,-,-,6.7,Log unit,25,?C,OP(=O)(c1ccc(Br)cc1)[O-],{po2h=7}
OP(O)(=O)C1=CC=CC=C1I,-,R936982,M1050544,-,-,o-iodophenylphosphonic acid,Koerner,charochkina,A5793,-,-,-,1.74,Log unit,25,?C,OP(=O)(c1c(I)cccc1)O,{po2h=8}
OP([O-])(=O)C1=CC=CC=C1I,-,R936983,M1050544,-,-,o-iodophenylphosphonic acid,Koerner,charochkina,A5793,-,-,-,7.06,Log unit,25,?C,OP(=O)(c1c(I)cccc1)[O-],{po2h=8}
OC1=CC(=CC=C1)P(O)(O)=O,-,R936984,M735022,-,-,phenol-3-phosphonic acid,Koerner,charochkina,A5793,-,-,-,1.78,Log unit,25,?C,OP(=O)(O)c1cccc(c1)O,{po2h=2}
OC1=CC(=CC=C1)P(O)([O-])=O,-,R936985,M735022,-,-,phenol-3-phosphonic acid,Koerner,charochkina,A5793,-,-,-,7.03,Log unit,25,?C,OP(=O)([O-])c1cccc(c1)O,{po2h=2}
OC1=CC(=CC=C1)P([O-])([O-])=O,-,R936986,M735022,-,-,phenol-3-phosphonic acid,Koerner,charochkina,A5793,-,-,-,10.2,Log unit,25,?C,Oc1cc(P(=O)([O-])[O-])ccc1,{oh=10}
OC1=CC=C(C=C1)P(O)(O)=O,-,R936987,M735023,-,-,phenol-4-phosphonic acid,Koerner,charochkina,A5793,-,-,-,1.99,Log unit,25,?C,OP(=O)(O)c1ccc(O)cc1,{po2h=2}
OC1=CC=C(C=C1)P(O)([O-])=O,-,R936988,M735023,-,-,phenol-4-phosphonic acid,Koerner,charochkina,A5793,-,-,-,7.25,Log unit,25,?C,OP(=O)([O-])c1ccc(O)cc1,{po2h=2}
OC1=CC=C(C=C1)P([O-])([O-])=O,-,R936989,M735023,-,-,phenol-4-phosphonic acid,Koerner,charochkina,A5793,-,-,-,9.9,Log unit,25,?C,Oc1ccc(P(=O)([O-])[O-])cc1,{oh=8}
COC1=CC=CC=C1P(O)(O)=O,-,R936990,M734958,-,-,o-methoxyphenylphosphonic acid,Koerner,charochkina,A5793,-,-,-,2.16,Log unit,25,?C,OP(=O)(O)c1ccccc1OC,{po2h=2}
COC1=CC=CC=C1P(O)([O-])=O,-,R936991,M734958,-,-,o-methoxyphenylphosphonic acid,Koerner,charochkina,A5793,-,-,-,7.77,Log unit,25,?C,OP(=O)([O-])c1ccccc1OC,{po2h=2}
COC1=CC=C(C=C1)P(O)(O)=O,-,R936992,M1050545,-,-,p-methoxyphenylphosphonic acid,Koerner,charochkina,A5793,-,-,-,2.1,Log unit,25,?C,OP(=O)(O)c1ccc(OC)cc1,{po2h=2}
COC1=CC=C(C=C1)P(O)([O-])=O,-,R936993,M1050545,-,-,p-methoxyphenylphosphonic acid,Koerner,charochkina,A5793,-,-,-,7.15,Log unit,25,?C,OP(=O)([O-])c1ccc(OC)cc1,{po2h=2}
CCOC1=CC=C(C=C1)P(O)(O)=O,-,R936994,M1050546,-,-,p-ethoxyphenylphosphonic acid,Koerner,charochkina,A5793,-,-,-,2.06,Log unit,25,?C,OP(=O)(O)c1ccc(OCC)cc1,{po2h=2}
CCOC1=CC=C(C=C1)P(O)([O-])=O,-,R936995,M1050546,-,-,p-ethoxyphenylphosphonic acid,Koerner,charochkina,A5793,-,-,-,7.28,Log unit,25,?C,OP(=O)([O-])c1ccc(OCC)cc1,{po2h=2}
OP(O)(=O)C1=CC=CC(=C1)N(=O)=O,-,R936996,M30103,-,-,m-Nitrophenylphosphonic acid,Koerner,charochkina,A5793,-,-,-,1.3,Log unit,25,?C,OP(=O)(O)c1cccc(c1)N(=O)=O,{po2h=2}
OP([O-])(=O)C1=CC=CC(=C1)N(=O)=O,-,R936997,M30103,-,-,m-Nitrophenylphosphonic acid,Koerner,charochkina,A5793,-,-,-,6.27,Log unit,25,?C,OP(=O)([O-])c1cccc(c1)N(=O)=O,{po2h=2}
OP(O)(=O)C1=CC=C(C=C1)N(=O)=O,-,R936998,M1050547,-,-,p-nitrophenylphosphonic acid,Koerner,charochkina,A5793,-,-,-,1.24,Log unit,25,?C,OP(=O)(O)c1ccc(N(=O)=O)cc1,{po2h=2}
OP([O-])(=O)C1=CC=C(C=C1)N(=O)=O,-,R936999,M1050547,-,-,p-nitrophenylphosphonic acid,Koerner,charochkina,A5793,-,-,-,6.23,Log unit,25,?C,OP(=O)([O-])c1ccc(N(=O)=O)cc1,{po2h=2}
NC1=C(C=CC=C1)P(O)([O-])=O,-,R937000,M1050548,-,-,o-aminophenylphosphonic acid,Koerner,charochkina,A5793,-,-,-,4.1,Log unit,25,?C,Nc1c(P(=O)(O)[O-])cccc1,{nr2=1}
NC1=C(C=CC=C1)P(O)([O-])=O,-,R937001,M1050548,-,-,o-aminophenylphosphonic acid,Koerner,charochkina,A5793,-,-,-,7.3,Log unit,25,?C,OP(=O)(c1c(N)cccc1)[O-],{po2h=5}
NC1=CC(=CC=C1)P(O)([O-])=O,-,R937002,M30280,-,-,m-Aminophenylphosphonic acid,Koerner,charochkina,A5793,-,-,-,7.16,Log unit,25,?C,OP(=O)(c1cc(N)ccc1)[O-],{po2h=6}
NC1=CC=C(C=C1)P(O)([O-])=O,-,R937003,M30102,-,-,p-aminophenylphosphonic acid,Koerner,charochkina,A5793,-,-,-,7.53,Log unit,25,?C,OP(=O)(c1ccc(N)cc1)[O-],{po2h=7}
C[NH2+]C1=CC(=CC=C1)P(O)(O)=O,-,R937004,M1050549,-,-,m-methylaminophenylphosphonic acid,Koerner,charochkina,A5793,-,-,-,1.1,Log unit,25,?C,OP(=O)(O)c1cccc(c1)[NH+]C,{po2h=2}
CNC1=CC(=CC=C1)P(O)([O-])=O,-,R937005,M1050549,-,-,m-methylaminophenylphosphonic acid,Koerner,charochkina,A5793,-,-,-,4.72,Log unit,25,?C,N(c1cc(P(=O)(O)[O-])ccc1)C,{nr2=10}
CNC1=CC(=CC=C1)P(O)([O-])=O,-,R937006,M1050549,-,-,m-methylaminophenylphosphonic acid,Koerner,charochkina,A5793,-,-,-,7.3,Log unit,25,?C,OP(=O)([O-])c1cccc(c1)NC,{po2h=2}
CNC1=CC=C(C=C1)P(O)([O-])=O,-,R937007,M1050550,-,-,p-aminophenylphosphonic acid,Koerner,charochkina,A5793,-,-,-,7.85,Log unit,25,?C,OP(=O)(c1ccc(NC)cc1)[O-],{po2h=8}
C[NH+](C)C1=CC=C(C=C1)P(O)(O)=O,-,R937008,M1050551,-,-,p-dimethylaminophenylphosphonic acid,Koerner,charochkina,A5793,-,-,-,2,Log unit,25,?C,OP(=O)(O)c1ccc([N+](C)C)cc1,{po2h=2}
CN(C)C1=CC=C(C=C1)P(O)([O-])=O,-,R937009,M1050551,-,-,p-dimethylaminophenylphosphonic acid,Koerner,charochkina,A5793,-,-,-,4.2,Log unit,25,?C,N(c1ccc(P(=O)(O)[O-])cc1)(C)C,{nr2=8}
CN(C)C1=CC=C(C=C1)P(O)([O-])=O,-,R937010,M1050551,-,-,p-dimethylaminophenylphosphonic acid,Koerner,charochkina,A5793,-,-,-,7.35,Log unit,25,?C,OP(=O)([O-])c1ccc(N(C)C)cc1,{po2h=2}
CC[NH2+]C1=CC(=CC=C1)P(O)(O)=O,-,R937011,M1050552,-,-,m-ethylaminophenylphosphonic acid,Koerner,charochkina,A5793,-,-,-,1.1,Log unit,25,?C,OP(=O)(O)c1cccc(c1)[NH+]CC,{po2h=2}
CCNC1=CC(=CC=C1)P(O)([O-])=O,-,R937012,M1050552,-,-,m-ethylaminophenylphosphonic acid,Koerner,charochkina,A5793,-,-,-,4.9,Log unit,25,?C,N(c1cc(P(=O)(O)[O-])ccc1)CC,{nr2=10}
CCNC1=CC(=CC=C1)P(O)([O-])=O,-,R937013,M1050552,-,-,m-ethylaminophenyl-phosphonic acid,Koerner,charochkina,A5793,-,-,-,7.2,Log unit,25,?C,OP(=O)([O-])c1cccc(c1)NCC,{po2h=2}
CN(C)C1=CC(=CC=C1)P(O)([O-])=O,-,R937014,M1050553,-,-,m-isopropylaminophenyl-phosphonic acid,Koerner,charochkina,A5793,-,-,-,7.33,Log unit,25,?C,OP(=O)([O-])c1cccc(c1)N(C)C,{po2h=2}
OP([O-])(=O)C1=CC=C(NNC2=CC=CC=C2)C=C1,-,R937015,M1050554,-,-,hydrazinobenzyl-phosphonic acid,Koerner,charochkina,A5793,-,-,-,7.54,Log unit,25,?C,OP(=O)(c1ccc(NNc2ccccc2)cc1)[O-],{po2h=14}
NC(=O)CC1=CC=C(C=C1)P(O)([O-])=O,-,R937016,M1050555,-,-,p-acetylaminophenyl-phosphonic acid,Koerner,charochkina,A5793,-,-,-,7.1,Log unit,25,?C,OP(=O)(c1ccc(CC(=O)N)cc1)[O-],{po2h=10}
CC1=CC=C(C(Br)=C1)P(O)(O)=O,-,R937017,M1050556,-,-,2-bromo-p-tolylphosphonic acid,Koerner,charochkina,A5793,-,-,-,1.81,Log unit,25,?C,OP(=O)(c1c(Br)cc(cc1)C)O,{po2h=9}
CC1=CC=C(C(Br)=C1)P(O)([O-])=O,-,R937018,M1050556,-,-,2-bromo-p-tolylphosphonic acid,Koerner,charochkina,A5793,-,-,-,7.15,Log unit,25,?C,OP(=O)(c1c(Br)cc(cc1)C)[O-],{po2h=9}
OC(=O)C1=CC=CC=C1P(O)(O)=O,-,R937019,M1050557,-,-,benzoic acid-2-phosphonic acid,Koerner,charochkina,A5793,-,-,-,1.71,Log unit,25,?C,OP(=O)(O)c1ccccc1C(=O)O,"{po2h=2, aliphatic_carboxylic_acid=12}"
OC(=O)C1=CC=CC=C1P(O)([O-])=O,-,R937020,M1050557,-,-,benzoic acid-2-phosphonic acid,Koerner,charochkina,A5793,-,-,-,3.78,Log unit,25,?C,OC(=O)c1c(P(=O)(O)[O-])cccc1,"{co2h=12, aliphatic_carboxylic_acid=12}"
OP([O-])(=O)C1=CC=CC=C1C([O-])=O,-,R937021,M1050557,-,-,benzoic acid-2-phosphonic acid,Koerner,charochkina,A5793,-,-,-,9.17,Log unit,25,?C,OP(=O)([O-])c1ccccc1C(=O)[O-],{po2h=2}
OC(=O)C1=CC(=CC=C1)P(O)(O)=O,-,R937022,M340746,-,-,benzoic acid-3-phosphonic acid,Koerner,charochkina,A5793,-,-,-,1.55,Log unit,25,?C,OP(=O)(O)c1cccc(c1)C(=O)O,"{po2h=2, aliphatic_carboxylic_acid=12}"
OC(=O)C1=CC(=CC=C1)P(O)([O-])=O,-,R937023,M340746,-,-,benzoic acid-3-phosphonic acid,Koerner,charochkina,A5793,-,-,-,4.03,Log unit,25,?C,OC(=O)c1cc(P(=O)(O)[O-])ccc1,"{co2h=12, aliphatic_carboxylic_acid=12}"
OP([O-])(=O)C1=CC=CC(=C1)C([O-])=O,-,R937024,M340746,-,-,benzoic acid-3-phosphonic acid,Koerner,charochkina,A5793,-,-,-,7.03,Log unit,25,?C,OP(=O)([O-])c1cccc(c1)C(=O)[O-],{po2h=2}
OC(=O)C1=CC=C(C=C1)P(O)(O)=O,-,R937025,M1050558,-,-,benzoic acid-4-phosphonic acid,Koerner,charochkina,A5793,-,-,-,1.5,Log unit,25,?C,OP(=O)(O)c1ccc(C(=O)O)cc1,"{po2h=2, aliphatic_carboxylic_acid=10}"
OC(=O)C1=CC=C(C=C1)P(O)([O-])=O,-,R937026,M1050558,-,-,benzoic acid-4-phosphonic acid,Koerner,charochkina,A5793,-,-,-,3.95,Log unit,25,?C,OC(=O)c1ccc(P(=O)([O-])O)cc1,"{co2h=10, aliphatic_carboxylic_acid=10}"
OP([O-])(=O)C1=CC=C(C=C1)C([O-])=O,-,R937027,M1050558,-,-,benzoic acid-4-phosphonic acid,Koerner,charochkina,A5793,-,-,-,6.89,Log unit,25,?C,OP(=O)([O-])c1ccc(C(=O)[O-])cc1,{po2h=3}
COC1=CC=C(C=C1Cl)P(O)(O)=O,-,R937028,M1050559,-,-,3-chloro-4-methoxyphenylphosphonic acid,Koerner,charochkina,A5793,-,-,-,2.25,Log unit,25,?C,OP(=O)(c1cc(Cl)c(cc1)OC)O,{po2h=6}
COC1=CC=C(C=C1Cl)P(O)([O-])=O,-,R937029,M1050559,-,-,3-chloro-4-methoxyphenylphosphonic acid,Koerner,charochkina,A5793,-,-,-,6.7,Log unit,25,?C,OP(=O)(c1cc(Cl)c(cc1)OC)[O-],{po2h=6}
OP(O)(=O)C1=CC=C(C=C1Cl)N(=O)=O,-,R937030,M1050560,-,-,2-chloro-4-nitrophenylphosphonic acid,Koerner,charochkina,A5793,-,-,-,1.12,Log unit,25,?C,OP(=O)(c1c(Cl)cc(cc1)N(=O)=O)O,{po2h=11}
OP([O-])(=O)C1=CC=C(C=C1Cl)N(=O)=O,-,R937031,M1050560,-,-,2-chloro-4-nitrophenylphosphonic acid,Koerner,charochkina,A5793,-,-,-,6.14,Log unit,25,?C,OP(=O)(c1c(Cl)cc(cc1)N(=O)=O)[O-],{po2h=11}
NC1=CC(Cl)=C(C=C1)P(O)([O-])=O,-,R937032,M1050561,-,-,2-chloro-4-aminophenylphosphonic acid,Koerner,charochkina,A5793,-,-,-,7.33,Log unit,25,?C,OP(=O)([O-])c1c(Cl)cc(N)cc1,{po2h=2}
OP([O-])(=O)C1=C(Cl)C=CC(=C1)N(=O)=O,-,R937033,M1050562,-,-,2-bromo-5-nitrophenylphosphonic acid,Koerner,charochkina,A5793,-,-,-,6.14,Log unit,25,?C,OP(=O)([O-])c1c(Cl)ccc(N(=O)=O)c1,{po2h=2}
OC1=CC(=CC=C1P(O)(O)=O)N(=O)=O,-,R937034,M1050563,-,-,2-hydroxy-4-nitrophenylphosphonic acid,Koerner,charochkina,A5793,-,-,-,1.22,Log unit,25,?C,OP(=O)(O)c1ccc(N(=O)=O)cc1O,{po2h=2}
OC1=CC(=CC=C1P(O)([O-])=O)N(=O)=O,-,R937035,M1050563,-,-,2-hydroxy-4-nitrophenylphosphonic acid,Koerner,charochkina,A5793,-,-,-,5.4,Log unit,25,?C,OP(=O)([O-])c1ccc(N(=O)=O)cc1O,{po2h=3}
COC1=CC(=CC=C1P(O)(O)=O)N(=O)=O,-,R937036,M1050564,-,-,2-methoxy-4-nitrophenylphosphonic acid,Koerner,charochkina,A5793,-,-,-,1.53,Log unit,25,?C,OP(=O)(O)c1ccc(N(=O)=O)cc1OC,{po2h=2}
COC1=CC(=CC=C1P(O)([O-])=O)N(=O)=O,-,R937037,M1050564,-,-,2-methoxy-4-nitrophenylphosphonic acid,Koerner,charochkina,A5793,-,-,-,6.96,Log unit,25,?C,OP(=O)([O-])c1ccc(N(=O)=O)cc1OC,{po2h=2}
COC1=CC(N)=CC=C1P(O)([O-])=O,-,R937038,M1050565,-,-,2-methoxy-4-aminoophenylphosphonic acid,Koerner,charochkina,A5793,-,-,-,8.22,Log unit,25,?C,OP(=O)([O-])c1ccc(N)cc1OC,{po2h=2}
CP(O)=O,-,R937039,M52206,-,-,METHYLPHOSPHINIC ACID,Koerner,charochkina,A5793,-,-,-,3.08,Log unit,25,?C,OP(=O)C,{po2h=2}
CCP(O)=O,-,R937040,M1034318,-,-,Ethylphosphinic acid,Koerner,charochkina,A5793,-,-,-,3.29,Log unit,25,?C,OP(=O)CC,{po2h=2}
CCCP(O)=O,-,R937041,M1034319,-,-,n-propylphosphinic acid,Koerner,charochkina,A5793,-,-,-,3.46,Log unit,25,?C,OP(=O)CCC,{po2h=2}
CC(C)P(O)=O,-,R937042,M1034320,-,-,iso-propylphosphinic acid,Koerner,charochkina,A5793,-,-,-,3.56,Log unit,25,?C,OP(=O)C(C)C,{po2h=2}
CCCCP(O)=O,-,R937043,M1034321,-,-,n-butylphosphinic acid,Koerner,charochkina,A5793,-,-,-,3.41,Log unit,25,?C,OP(=O)CCCC,{po2h=2}
OP(=O)C1=CC=CC=C1,-,R937044,M25752,-,-,Phenylphosphinic acid,Koerner,charochkina,A5793,-,-,-,2.1,Log unit,25,?C,OP(=O)c1ccccc1,{po2h=2}
OP(=O)C1=CC=C(Br)C=C1,-,R937045,M1050566,-,-,p-bromophenylphosphinic acid,Koerner,charochkina,A5793,-,-,-,2.1,Log unit,25,?C,OP(=O)c1ccc(Br)cc1,{po2h=7}
COC1=CC=C(C=C1)P(O)=O,-,R937046,M1050567,-,-,p-methoxyphenylphosphinic acid,Koerner,charochkina,A5793,-,-,-,2.35,Log unit,25,?C,OP(=O)c1ccc(OC)cc1,{po2h=2}
C[NH+](C)C1=CC=C(C=C1)P(O)=O,-,R937047,M1050568,-,-,p-dimethylaminophenylphosphinic acid,Koerner,charochkina,A5793,-,-,-,2.1,Log unit,25,?C,OP(=O)c1ccc([N+](C)C)cc1,{po2h=2}
CN(C)C1=CC=C(C=C1)P([O-])=O,-,R937048,M1050568,-,-,p-dimethylaminophenylphosphinic acid,Koerner,charochkina,A5793,-,-,-,4.1,Log unit,25,?C,N(c1ccc(P(=O)[O-])cc1)(C)C,{nr2=7}
OP(O)(=O)OC1=CC=CC2=C1C=CC=C2,-,R937049,M68762,-,-,1-napthyl dihydrogen phosphate,Koerner,charochkina,A5793,-,-,-,0.97,Log unit,25,?C,OP(=O)(Oc1cccc2ccccc12)O,{po2h=4}
OP([O-])(=O)OC1=CC=CC2=C1C=CC=C2,-,R937050,M68762,-,-,1-napthyl dihydrogen phosphate,Koerner,charochkina,A5793,-,-,-,5.85,Log unit,25,?C,OP(=O)(Oc1cccc2ccccc12)[O-],{po2h=4}
OP(O)(=O)OC1=CC2=C(C=CC=C2)C=C1,-,R937051,M100070,-,-,2-napthyl dihydrogen phosphate,Koerner,charochkina,A5793,-,-,-,1.25,Log unit,25,?C,OP(=O)(Oc1cc2ccccc2cc1)O,{po2h=5}
OP([O-])(=O)OC1=CC2=C(C=CC=C2)C=C1,-,R937052,M100070,-,-,2-napthyl dihydrogen phosphate,Koerner,charochkina,A5793,-,-,-,5.83,Log unit,25,?C,OP(=O)(Oc1cc2ccccc2cc1)[O-],{po2h=5}
OC1=CC=C(C=C1)N=NC1=CC=C(C=C1)P(O)([O-])=O,-,R937053,M1050569,-,-,4-(4-hydrxyphenylazo)phenylphosphonic acid,Koerner,charochkina,A5793,-,-,-,6.4,Log unit,25,?C,OP(=O)(c1ccc(cc1)N=Nc1ccc(O)cc1)[O-],{po2h=5}
O[As](O)(O)=O,-,R937054,M32202,-,-,arsonic acid,Koerner,charochkina,A5793,-,-,-,2.73,Log unit,25,?C,O[As](=O)(O)O,{aso2h=2}
O[As](O)([O-])=O,-,R937055,M32202,-,-,arsonic acid,Koerner,charochkina,A5793,-,-,-,6.77,Log unit,25,?C,O[As](=O)(O)[O-],{aso2h=2}
O[As]([O-])([O-])=O,-,R937056,M32202,-,-,arsonic acid,Koerner,charochkina,A5793,-,-,-,11.12,Log unit,25,?C,O[As](=O)([O-])[O-],{aso2h=2}
OC1=CC=CC=CC1=O,-,R936857,M6681,-,-,"2-Hydroxy-2,4,6-cycloheptatrien-1-one",Koerner,charochkina,A5793,-,-,-,7,Log unit,25,?C,Oc1c(=O)ccccc1,{oh=3}
CS,-,R936858,M15226,-,-,METHANETHIOL,Koerner,charochkina,A5793,-,-,-,10.33,Log unit,25,?C,SC,{sh=0}
CCS,-,R936859,M2109,-,-,ethanethiol,Koerner,charochkina,A5793,-,-,-,10.555,Log unit,25,?C,SCC,{sh=0}
SCC[S-],-,R936860,M21461,-,-,"1,2-ETHANEDITHIOL",Koerner,charochkina,A5793,-,-,-,10.3,Log unit,25,?C,SCC[S-],{sh=0}
SCC([S-])CC=O,-,R936861,M1034261,-,-,"2243 2,3-dimercapto-1-propanol",Koerner,charochkina,A5793,-,-,-,10.6,Log unit,25,?C,SCC(CC=O)[S-],{sh=6}
[O-]S(=O)(=O)CC([S-])CS,-,R936862,M17385,-,-,"2,3-dimercapto-1-propansulfonic acid",Koerner,charochkina,A5793,-,-,-,11.2,Log unit,25,?C,SCC(CS(=O)(=O)[O-])[S-],{sh=8}
OCCS,-,R936863,M17223,-,-,2-mercaptoethanol,Koerner,charochkina,A5793,-,-,-,9.4,Log unit,25,?C,SCCO,{sh=0}
[O-]S(=O)(=O)CCS,-,R936864,M14233,-,-,2-Mercaptoethanesulfonic acid,Koerner,charochkina,A5793,-,-,-,9.08,Log unit,25,?C,SCCS(=O)(=O)[O-],{sh=6}
CCOCCS,-,R936865,M117114,-,-,ethoxyethanthiol,Koerner,charochkina,A5793,-,-,-,9.35,Log unit,25,?C,SCCOCC,{sh=1}
CC(S)C=O,-,R936866,M90137,-,-,2-mercapto-2-methyl-1-propanol,Koerner,charochkina,A5793,-,-,-,9.35,Log unit,25,?C,SC(C)C=O,{sh=1}
CCCCCCS,-,R936867,M18763,-,-,Hexanethiol,Koerner,charochkina,A5793,-,-,-,10.3,Log unit,25,?C,SCCCCCC,{sh=1}
SC1=CC=CC=C1,-,R936868,M9877,-,-,Benzenethiol,Koerner,charochkina,A5793,-,-,-,6.62,Log unit,25,?C,Sc1ccccc1,{sh=1}
CC1=C(S)C=CC=C1,-,R936869,M19469,-,-,2-methyl-Benzenethiol,Koerner,charochkina,A5793,-,-,-,6.64,Log unit,25,?C,Sc1c(C)cccc1,{sh=1}
CC1=CC=CC(S)=C1,-,R936870,M18659,-,-,3-methyl-Benzenethiol,Koerner,charochkina,A5793,-,-,-,6.66,Log unit,25,?C,Sc1cc(C)ccc1,{sh=1}
CC1=CC=C(S)C=C1,-,R936871,M12389,-,-,4-Methyl-benzenethiol,Koerner,charochkina,A5793,-,-,-,6.82,Log unit,25,?C,Sc1ccc(C)cc1,{sh=1}
SC1=CC(Cl)=CC=C1,-,R936872,M26128,-,-,3-Chloro-benzenethiol,Koerner,charochkina,A5793,-,-,-,5.78,Log unit,25,?C,Sc1cc(Cl)ccc1,{sh=1}
SC1=CC=C(Cl)C=C1,-,R936873,M18573,-,-,4-chloro-Benzenethiol,Koerner,charochkina,A5793,-,-,-,5.9,Log unit,25,?C,Sc1ccc(Cl)cc1,{sh=1}
SC1=CC=C(Br)C=C1,-,R936874,M18572,-,-,4-Bromo-benzenethiol,Koerner,charochkina,A5793,-,-,-,6.02,Log unit,25,?C,Sc1ccc(Br)cc1,{sh=1}
SCC1=CC=CC=C1,-,R936875,M18326,-,-,methanthiolphenyl,Koerner,charochkina,A5793,-,-,-,9.43,Log unit,25,?C,SCc1ccccc1,{sh=1}
[O-]C(=O)C1=C(S)C=CC=C1,-,R936876,M19667,-,-,2-MERCAPTOBENZOIC ACID,Koerner,charochkina,A5793,-,-,-,8.6,Log unit,25,?C,Sc1c(C(=O)[O-])cccc1,{sh=5}
[O-]C(=O)C1=CC(S)=CC=C1,-,R936877,M110721,-,-,3-Mercaptobenzoic acid,Koerner,charochkina,A5793,-,-,-,6.3,Log unit,25,?C,Sc1cc(C(=O)[O-])ccc1,{sh=6}
[O-]C(=O)C1=CC=C(S)C=C1,-,R936878,M50847,-,-,4-Mercaptobenzoic acid,Koerner,charochkina,A5793,-,-,-,5.8,Log unit,25,?C,Sc1ccc(C(=O)[O-])cc1,{sh=7}
COC1=CC=CC(S)=C1,-,R936879,M33591,-,-,3-methoxy-Benzenethiol,Koerner,charochkina,A5793,-,-,-,6.4,Log unit,25,?C,Sc1cc(OC)ccc1,{sh=1}
COC1=CC=C(S)C=C1,-,R936880,M23352,-,-,4-methoxy-Benzenethiol,Koerner,charochkina,A5793,-,-,-,6.8,Log unit,25,?C,Sc1ccc(OC)cc1,{sh=1}
SC1=CC(=CC=C1)N(=O)=O,-,R936881,M1050533,-,-,3-nitro-Benzenethiol,Koerner,charochkina,A5793,-,-,-,5.24,Log unit,25,?C,Sc1cc(N(=O)=O)ccc1,{sh=1}
SC1=CC=C(C=C1)N(=O)=O,-,R936882,M70301,-,-,4-Nitro-benzenethiol,Koerner,charochkina,A5793,-,-,-,4.7,Log unit,25,?C,Sc1ccc(N(=O)=O)cc1,{sh=1}
SC1=CC=CC=CC1=O,-,R936883,M1034269,-,-,"2-mecapto-2,4,6-Cycloheptatrien-1-one",Koerner,charochkina,A5793,-,-,-,5.9,Log unit,25,?C,Sc1c(=O)ccccc1,{sh=3}
OOS(O)(=O)=O,-,R936884,M79053,-,-,Peroxymonosulphuric acid,Koerner,charochkina,A5793,-,-,-,0.7,Log unit,25,?C,OS(=O)(=O)OO,{so3h=3}
OS(O)(=O)=O,-,R936885,M32133,-,-,Sulphuric acid,Koerner,charochkina,A5793,-,-,-,1.9,Log unit,25,?C,OS(=O)(=O)O,{so3h=3}
CC(N)S(O)(=O)=O,-,R936886,M134222,-,-,1-aminoethylsulfonic acid,Koerner,charochkina,A5793,-,-,-,-0.33,Log unit,25,?C,OS(=O)(=O)C(N)C,{so3h=3}