Smiles,CASRN,Record ID,Molecule ID,External ID,N,Name,Introducer,Modifer,Article ID,PUBMED ID,PAGE,TABLE,pKa,pKa Unit,Temperature,Temperature Unit,Ionizable center smiles,IC group
CC1CCCC(CC(O)=O)(CC([O-])=O)C1,-,R935621,M1018369,-,-,"3-METHYLCYCLOHEXYL-1,1-DIACETIC ACID",Koerner,charochkina,A5793,-,-,-,5.78,Log unit,25,?C,OC(=O)CC1(CCCC(C1)C)CC(=O)[O-],"{co2h=7, aliphatic_carboxylic_acid=7}"
CC1CCC(CC(O)=O)(CC(O)=O)CC1,-,R935622,M1018370,-,-,"4-methylcyclohexyl-1,1-diacetic acid",Koerner,charochkina,A5793,-,-,-,3.79,Log unit,25,?C,OC(=O)CC1(CCC(CC1)C)CC(=O)O,"{co2h=7, aliphatic_carboxylic_acid=7}"
CC1CCC(CC(O)=O)(CC([O-])=O)CC1,-,R935623,M1018370,-,-,"4-methylcyclohexyl-1,1-diacetic acid",Koerner,charochkina,A5793,-,-,-,5.8,Log unit,25,?C,OC(=O)CC1(CCC(CC1)C)CC(=O)[O-],"{co2h=11, aliphatic_carboxylic_acid=11}"
OC(=O)C1(O)CCCCCC1,-,R935624,M1018371,-,-,cycloheptanecarboxlic acid-1-hydroxy,Koerner,charochkina,A5793,-,-,-,4.2,Log unit,25,?C,OC(=O)C1(O)CCCCCC1,"{co2h=3, aliphatic_carboxylic_acid=3}"
OC(=O)C1CCCCC1C1CCCCC1C(O)=O,-,R935625,M1018372,-,-,perhydrodiphenic acid,Koerner,charochkina,A5793,-,-,-,5.2,Log unit,25,?C,OC(=O)C1CCCCC1C1CCCCC1C(=O)O,"{co2h=2, aliphatic_carboxylic_acid=2}"
OC(=O)C1CCCCC1C1CCCCC1C([O-])=O,-,R935626,M1018372,-,-,perhydrodiphenic acid,Koerner,charochkina,A5793,-,-,-,5.65,Log unit,25,?C,OC(=O)C1C(C2C(C(=O)[O-])CCCC2)CCCC1,"{co2h=17, aliphatic_carboxylic_acid=17}"
OC(=O)C1CC2=CC=CC=C2CC1C(O)=O,-,R935627,M1050307,-,-,"trans-tetrahydronaphthalin-2,3-dicarboxylic acid",Koerner,charochkina,A5793,-,-,-,4.3,Log unit,25,?C,OC(=O)C1Cc2ccccc2CC1C(=O)O,"{co2h=8, aliphatic_carboxylic_acid=8}"
OC(=O)C1CC2=CC=CC=C2CC1C([O-])=O,-,R935628,M1050307,-,-,"trans-tetrahydronaphthalin-2,3-dicarboxylic acid",Koerner,charochkina,A5793,-,-,-,5.4,Log unit,25,?C,OC(=O)C1Cc2ccccc2CC1C(=O)[O-],"{co2h=8, aliphatic_carboxylic_acid=8}"
OC(=O)C1C2CCC(C2)C1C(O)=O,-,R935629,M1018374,-,-,"trans-hexahydro-3,6-endomethylene-o-phthalic acid",Koerner,charochkina,A5793,-,-,-,4.37,Log unit,25,?C,OC(=O)C1C2CC(CC2)C1C(=O)O,"{co2h=6, aliphatic_carboxylic_acid=6}"
OC(=O)C1C2CCC(C2)C1C([O-])=O,-,R935630,M1018374,-,-,"trans-hexahydro-3,6-endomethylene-o-phthalic acid",Koerner,charochkina,A5793,-,-,-,5.36,Log unit,25,?C,OC(=O)C1C2CC(CC2)C1C(=O)[O-],"{co2h=12, aliphatic_carboxylic_acid=12}"
OC(=O)C1C2CC(C=C2)C1C(O)=O,-,R935631,M73441,-,-,"trans-delta-4-tetrahydro-3,6-endomethylen-o-phthalic acid",Koerner,charochkina,A5793,-,-,-,4.36,Log unit,25,?C,OC(=O)C1C2C=CC(C2)C1C(=O)O,"{co2h=6, aliphatic_carboxylic_acid=6}"
OC(=O)C1C2CC(C=C2)C1C([O-])=O,-,R935632,M73441,-,-,"trans-delta-4-tetrahydro-3,6-endomethylen-o-phthalic acid",Koerner,charochkina,A5793,-,-,-,5.4,Log unit,25,?C,OC(=O)C1C2C=CC(C1C(=O)[O-])C2,"{co2h=12, aliphatic_carboxylic_acid=12}"
OC(=O)C1C2CCC(CC2)C1C(O)=O,-,R935633,M1018375,-,-,"trans-hexahydro-3,6-endoethylene-o-phthalic acid",Koerner,charochkina,A5793,-,-,-,4.2,Log unit,25,?C,OC(=O)C1C2CCC(CC2)C1C(=O)O,"{co2h=7, aliphatic_carboxylic_acid=7}"
OC(=O)C1C2CCC(CC2)C1C([O-])=O,-,R935634,M1018375,-,-,"trans-hexahydro-3,6-endoethylene-o-phthalic acid",Koerner,charochkina,A5793,-,-,-,5.85,Log unit,25,?C,OC(=O)C1C2CCC(CC2)C1C(=O)[O-],"{co2h=13, aliphatic_carboxylic_acid=13}"
CC1(C)C(CCC1C(O)=O)C(O)=O,-,R935635,M1018376,-,-,"cyclobutan-1,3-dicarboxlic acid-2,2-dimethyl",Koerner,charochkina,A5793,-,-,-,4.88,Log unit,25,?C,OC(=O)C1C(C)(C)C(C(=O)O)CC1,"{co2h=3, aliphatic_carboxylic_acid=3}"
CC1(C)C(CCC1C([O-])=O)C(O)=O,-,R935636,M1018376,-,-,"cyclobutan-1,3-dicarboxlic acid-2,2-dimethyl",Koerner,charochkina,A5793,-,-,-,5.19,Log unit,25,?C,OC(=O)C1C(C)(C)C(C(=O)[O-])CC1,"{co2h=3, aliphatic_carboxylic_acid=3}"
OC(=O)C1CCCCCCC1C(O)=O,-,R935637,M1018377,-,-,"cyclooctan-1,2-dicarboxlic acid",Koerner,charochkina,A5793,-,-,-,4.67,Log unit,25,?C,OC(=O)C1C(C(=O)O)CCCCCC1,"{co2h=3, aliphatic_carboxylic_acid=3}"
OC(=O)C1CCCCCCC1C([O-])=O,-,R935638,M1018377,-,-,"cyclooctan-1,2-dicarboxlic acid",Koerner,charochkina,A5793,-,-,-,5.76,Log unit,25,?C,OC(=O)C1C(C(=O)[O-])CCCCCC1,"{co2h=7, aliphatic_carboxylic_acid=7}"
CC1(C)C(CCC1(C)C(O)=O)C(O)=O,-,R935639,M6436,-,-,"cyclopentan-1,3-dicarboxlic acid-1,2,2-trimethyl",Koerner,charochkina,A5793,-,-,-,5.01,Log unit,25,?C,OC(=O)C1(C)C(C)(C)C(C(=O)O)CC1,"{co2h=3, aliphatic_carboxylic_acid=3}"
CC1(C)C(CCC1(C)C(O)=O)C([O-])=O,-,R935640,M6436,-,-,"cyclopentan-1,3-dicarboxlic acid-1,2,2-trimethyl",Koerner,charochkina,A5793,-,-,-,5.53,Log unit,25,?C,OC(=O)C1(C)C(C)(C)C(C(=O)[O-])CC1,"{co2h=3, aliphatic_carboxylic_acid=3}"
OC(=O)C1C2CCC(C=C2)C1C(O)=O,-,R935641,M1018378,-,-,"trans-delta^4-tetrahydro-3,6-endoethylene-o-phthalic acid",Koerner,charochkina,A5793,-,-,-,4.45,Log unit,25,?C,OC(=O)C1C2C=CC(CC2)C1C(=O)O,"{co2h=7, aliphatic_carboxylic_acid=7}"
OC(=O)C1C2CC(C3C4CCC(C4)C23)C1C(O)=O,-,R935642,M1018379,-,-,trans-C14H18O4-dicarboxylic acid,Koerner,charochkina,A5793,-,-,-,4.82,Log unit,25,?C,OC(=O)C1C2C3C4CC(CC4)C3C(C2)C1C(=O)O,"{co2h=9, aliphatic_carboxylic_acid=9}"
OC(=O)C1C2CC(C3C4CCC(C4)C23)C1C([O-])=O,-,R935643,M1018379,-,-,trans-C14H18O4-dicarboxylic acid,Koerner,charochkina,A5793,-,-,-,5.84,Log unit,25,?C,OC(=O)C1C2C3C4CC(CC4)C3C(C2)C1C(=O)[O-],"{co2h=17, aliphatic_carboxylic_acid=17}"
OC(=O)CC1C2CC(C3C4CCC(C4)C23)C1C(O)=O,-,R935644,M1018380,-,-,alpha-trans-C15H20O4-dicarboxylic acid,Koerner,charochkina,A5793,-,-,-,4.55,Log unit,25,?C,OC(=O)C1C2C3C4CC(CC4)C3C(C2)C1CC(=O)O,"{co2h=9, aliphatic_carboxylic_acid=9}"
OC(=O)C1CCCC(C1C(O)=O)C(O)=O,-,R935645,M1017973,-,-,"1,2,3-cyclohexane-tricarboxylic acid",Koerner,charochkina,A5793,-,-,-,4.36,Log unit,25,?C,OC(=O)C1CCCC(C1C(=O)O)C(=O)O,"{co2h=2, aliphatic_carboxylic_acid=2}"
CC1(C)C(CC1C(O)=O)C(O)=O,-,R935646,M1018381,-,-,trans-norpinic acid,Koerner,charochkina,A5793,-,-,-,3.9,Log unit,25,?C,OC(=O)C1CC(C(=O)O)C1(C)C,"{co2h=2, aliphatic_carboxylic_acid=2}"
CC1(C)C(CC1C([O-])=O)C(O)=O,-,R935647,M1018381,-,-,trans-norpinic acid,Koerner,charochkina,A5793,-,-,-,4.9,Log unit,25,?C,OC(=O)C1CC(C(=O)[O-])C1(C)C,"{co2h=8, aliphatic_carboxylic_acid=8}"
CC1(C)C(C1C(O)=O)C(O)=O,-,R935648,M1018382,-,-,trans-caronic acid,Koerner,charochkina,A5793,-,-,-,4.12,Log unit,25,?C,OC(=O)C1C(C)(C)C1C(=O)O,"{co2h=2, aliphatic_carboxylic_acid=2}"
OC(=O)CF,-,R935649,M19636,-,-,Monofluoroacetic acid,Koerner,charochkina,A5793,-,-,-,2.565,Log unit,25,?C,OC(=O)CF,"{co2h=4, aliphatic_carboxylic_acid=4}"
OC(=O)CCl,-,R935650,M2769,-,-,Monochloroacetic acid,Koerner,charochkina,A5793,-,-,-,2.825,Log unit,25,?C,OC(=O)CCl,"{co2h=4, aliphatic_carboxylic_acid=4}"
OC(=O)CBr,-,R935651,M5489,-,-,Monobromoacetic acid,Koerner,charochkina,A5793,-,-,-,2.895,Log unit,25,?C,OC(=O)CBr,"{co2h=4, aliphatic_carboxylic_acid=4}"
OC(=O)CI,-,R935652,M17284,-,-,Monoiodoacetic acid,Koerner,charochkina,A5793,-,-,-,3.165,Log unit,25,?C,OC(=O)CI,"{co2h=4, aliphatic_carboxylic_acid=4}"
OC(=O)CC#N,-,R935653,M20250,-,-,CYANOACETIC ACID,Koerner,charochkina,A5793,-,-,-,2.45,Log unit,25,?C,OC(=O)CC#N,"{co2h=2, aliphatic_carboxylic_acid=2}"
CC(S)C(O)=O,-,R935654,M17564,-,-,2-mercapto-1-propanoic acid,Koerner,charochkina,A5793,-,-,-,3.6,Log unit,25,?C,OC(=O)C(S)C,"{co2h=2, aliphatic_carboxylic_acid=2}"
CC(S)C([O-])=O,-,R935655,M17564,-,-,2-mercapto-1-propanoic acid,Koerner,charochkina,A5793,-,-,-,10.2,Log unit,25,?C,SC(C(=O)[O-])C,{sh=4}
OC(=O)C(Cl)Cl,-,R935656,M17565,-,-,DICHLOROACETIC ACID,Koerner,charochkina,A5793,-,-,-,1.36,Log unit,25,?C,OC(=O)C(Cl)Cl,"{co2h=5, aliphatic_carboxylic_acid=5}"
N1C=CC=N1,-,R933473,M12595,-,-,Pyrazole,Koerner,charochkina,A3555,12767145,-,-,2.61,Log unit,,-,n1ccc[nH]1,
C1=CN=NC=C1,-,R933474,M8428,-,-,pyridazine,Koerner,charochkina,A3555,12767145,-,-,2.33,Log unit,,-,n1ncccc1,
C1=CC=NC=C1,-,R933475,M5279,-,-,pyridine,Koerner,charochkina,A3555,12767145,-,-,5.17,Log unit,,-,n1ccccc1,
C1=CN=CN=C1,-,R933476,M1783,-,-,pyrimidine,Koerner,charochkina,A3555,12767145,-,-,1.3,Log unit,,-,n1cnccc1,
C1CCNC1,-,R933477,M10105,-,-,pyrrolidine,Koerner,charochkina,A3555,12767145,-,-,11.3,Log unit,,-,N1CCCC1,
C1=CC2=C(C=C1)N=CC=C2,-,R933478,M10490,-,-,Quinoline,Koerner,charochkina,A3555,12767145,-,-,4.8,Log unit,,-,n1cccc2ccccc12,
C1=CC2=C(C=C1)N=CC=N2,-,R933479,M13197,-,-,Quinoxaline,Koerner,charochkina,A3555,12767145,-,-,0.72,Log unit,,-,n1ccnc2ccccc12,
[H]N=C(N)SC,-,R933480,M10268,-,-,S-methylisothiourea,Koerner,charochkina,A3555,12767145,-,-,9.83,Log unit,,-,N=C(SC)N,
N[C@@H](CO)C(O)=O,-,R933481,M50474,-,-,SERINE2,Koerner,charochkina,A3555,12767145,-,-,9.21,Log unit,,-,NC(CO)C(=O)O,
CC(C)(C)N,-,R933482,M13408,-,-,t-Butylamine,Koerner,charochkina,A3555,12767145,-,-,10.69,Log unit,,-,NC(C)(C)C,
C1CNC2=C(C1)C=CC=C2,-,R933483,M6049,-,-,Tetrahydroquinoline,Koerner,charochkina,A3555,12767145,-,-,5,Log unit,,-,N1CCCc2ccccc12,
C[C@@H](O)[C@H](N)C(O)=O,-,R933484,M575,-,-,THREONINE2,Koerner,charochkina,A3555,12767145,-,-,9.1,Log unit,,-,NC(C(C)O)C(=O)O,
C=CCN(CC=C)CC=C,-,R933485,M18424,-,-,TRIALLYLAMINE,Koerner,charochkina,A3555,12767145,-,-,8.31,Log unit,,-,N(CC=C)(CC=C)CC=C,
OCCN(CCO)CCO,-,R933486,M3468,-,-,Triethanolamine,Koerner,charochkina,A3555,12767145,-,-,7.76,Log unit,,-,N(CCO)(CCO)CCO,
CCN(CC)CC,-,R933487,M14208,-,-,triethylamine,Koerner,charochkina,A3555,12767145,-,-,10.72,Log unit,,-,N(CC)(CC)CC,
CC(C)CN(CC(C)C)CC(C)C,-,R933488,M24578,-,-,TRIISOBUTYLAMINE,Koerner,charochkina,A3555,12767145,-,-,10.42,Log unit,,-,N(CC(C)C)(CC(C)C)CC(C)C,
CN(C)C,-,R933489,M3145,-,-,trimethylamine,Koerner,charochkina,A3555,12767145,-,-,9.8,Log unit,,-,N(C)(C)C,
CCCN(CCC)CCC,-,R933490,M13501,-,-,tripropylamine,Koerner,charochkina,A3555,12767145,-,-,10.66,Log unit,,-,N(CCC)(CCC)CCC,
NC(CO)(CO)CO,-,R933491,M6104,-,-,Tris(Hydroxymethyl)aminomethane,Koerner,charochkina,A3555,12767145,-,-,8.08,Log unit,,-,NC(CO)(CO)CO,
N[C@@H](CC1=CNC2=C1C=CC=C2)C(O)=O,-,R933492,M9178,-,-,TRYPTOPHAN2,Koerner,charochkina,A3555,12767145,-,-,9.41,Log unit,,-,NC(Cc1c[nH]c2c1cccc2)C(=O)O,
N[C@@H](CC1=CC=C(O)C=C1)C(O)=O,-,R933493,M8281,-,-,TYROSINE2,Koerner,charochkina,A3555,12767145,-,-,9.21,Log unit,,-,NC(Cc1ccc(cc1)O)C(=O)O,
CC(C)[C@H](N)C(O)=O,-,R933494,M6010,-,-,VALINE2,Koerner,charochkina,A3555,12767145,-,-,9.74,Log unit,,-,NC(C(C)C)C(=O)O,
CNC=C,-,R933495,M109720,-,-,VINYLMETHYLAMINE,Koerner,charochkina,A3555,12767145,-,-,9.69,Log unit,,-,N(C)C=C,
OC=O,-,R935479,M675,-,-,Formic acid,Koerner,charochkina,A5793,-,-,-,3.75,Log unit,25,?C,OC=O,{co2h=2}
CC(O)=O,-,R935480,M9421,-,-,acetic acid,Koerner,charochkina,A5793,-,-,-,4.76,Log unit,25,?C,OC(=O)C,"{co2h=2, aliphatic_carboxylic_acid=2}"
CCC(O)=O,-,R935481,M12780,-,-,Propionic Acid,Koerner,charochkina,A5793,-,-,-,4.87,Log unit,25,?C,OC(=O)CC,"{co2h=2, aliphatic_carboxylic_acid=2}"
CCCC(O)=O,-,R935482,M2541,-,-,n-Butyric Acid,Koerner,charochkina,A5793,-,-,-,4.81,Log unit,25,?C,OC(=O)CCC,"{co2h=2, aliphatic_carboxylic_acid=2}"
CC(C)C(O)=O,-,R935483,M5785,-,-,Iso-butyric acid,Koerner,charochkina,A5793,-,-,-,4.62,Log unit,25,?C,OC(=O)C(C)C,"{co2h=2, aliphatic_carboxylic_acid=2}"
CCCCC(O)=O,-,R935484,M7522,-,-,Valeric acid,Koerner,charochkina,A5793,-,-,-,4.815,Log unit,25,?C,OC(=O)CCCC,"{co2h=2, aliphatic_carboxylic_acid=2}"
CC(C)CC(O)=O,-,R935485,M3566,-,-,iso-valeric acid,Koerner,charochkina,A5793,-,-,-,4.77,Log unit,25,?C,OC(=O)CC(C)C,"{co2h=2, aliphatic_carboxylic_acid=2}"
OC(=O)C=O,-,R935486,M19855,-,-,2-oxoacetic acid,Koerner,charochkina,A5793,-,-,-,3.08,Log unit,25,?C,OC(=O)C=O,"{co2h=4, aliphatic_carboxylic_acid=4}"
CC(C)(C)C(O)=O,-,R935487,M4682,-,-,trimethyl acetic acid,Koerner,charochkina,A5793,-,-,-,5.036,Log unit,25,?C,OC(=O)C(C)(C)C,"{co2h=2, aliphatic_carboxylic_acid=2}"
CCC(C)C(O)=O,-,R935488,M18931,-,-,methyl-ethyl-acetic acid,Koerner,charochkina,A5793,-,-,-,4.785,Log unit,25,?C,OC(=O)C(C)CC,"{co2h=2, aliphatic_carboxylic_acid=2}"
CCCCCC(O)=O,-,R935489,M2941,-,-,caproic acid,Koerner,charochkina,A5793,-,-,-,4.865,Log unit,25,?C,OC(=O)CCCCC,"{co2h=2, aliphatic_carboxylic_acid=2}"
CC(C)CCC(O)=O,-,R935490,M2580,-,-,iso-caproic acid,Koerner,charochkina,A5793,-,-,-,4.84,Log unit,25,?C,OC(=O)CCC(C)C,"{co2h=2, aliphatic_carboxylic_acid=2}"
CCCC(C)C(O)=O,-,R935491,M18211,-,-,methyl-n-propylacetic acid,Koerner,charochkina,A5793,-,-,-,4.79,Log unit,25,?C,OC(=O)C(C)CCC,"{co2h=2, aliphatic_carboxylic_acid=2}"
CCC(C)CC(O)=O,-,R935492,M4386,-,-,beta-methyl-beta-ethylpropionic acid,Koerner,charochkina,A5793,-,-,-,4.83,Log unit,25,?C,OC(=O)CC(C)CC,"{co2h=2, aliphatic_carboxylic_acid=2}"
CCC(C)(C)C(O)=O,-,R935493,M22154,-,-,dimethyl-ethylacetic acid,Koerner,charochkina,A5793,-,-,-,4.98,Log unit,25,?C,OC(=O)C(C)(C)CC,"{co2h=2, aliphatic_carboxylic_acid=2}"
CCC(CC)C(O)=O,-,R935494,M8338,-,-,Diethylacetic acid,Koerner,charochkina,A5793,-,-,-,4.73,Log unit,25,?C,OC(=O)C(CC)CC,"{co2h=2, aliphatic_carboxylic_acid=2}"
CCCCCCC(O)=O,-,R935495,M6894,-,-,Enanthic acid,Koerner,charochkina,A5793,-,-,-,4.87,Log unit,25,?C,OC(=O)CCCCCC,"{co2h=2, aliphatic_carboxylic_acid=2}"
CC(C)(C)C(C)(C)C(O)=O,-,R935496,M1018352,-,-,triethylacetic acid,Koerner,charochkina,A5793,-,-,-,4.79,Log unit,25,?C,OC(=O)C(C)(C)C(C)(C)C,"{co2h=2, aliphatic_carboxylic_acid=2}"
CCCC(CC)C(O)=O,-,R935497,M34937,-,-,ethyl-n-propylacetic acid,Koerner,charochkina,A5793,-,-,-,4.71,Log unit,25,?C,OC(=O)C(CC)CCC,"{co2h=2, aliphatic_carboxylic_acid=2}"
CCCCCCCC(O)=O,-,R935498,M12676,-,-,caprylic acid,Koerner,charochkina,A5793,-,-,-,4.89,Log unit,25,?C,OC(=O)CCCCCCC,"{co2h=2, aliphatic_carboxylic_acid=2}"
CCCCCCCCC(O)=O,-,R935499,M2478,-,-,pelargonic acid,Koerner,charochkina,A5793,-,-,-,4.95,Log unit,25,?C,OC(=O)CCCCCCCC,"{co2h=2, aliphatic_carboxylic_acid=2}"
OC(=O)C(O)=O,-,R935500,M7022,-,-,oxalic acid,Koerner,charochkina,A5793,-,-,-,1.275,Log unit,25,?C,OC(=O)C(=O)O,"{co2h=2, aliphatic_carboxylic_acid=2}"
OC(=O)C([O-])=O,-,R935501,M7022,-,-,oxalic acid,Koerner,charochkina,A5793,-,-,-,3.5,Log unit,25,?C,OC(=O)C(=O)[O-],"{co2h=2, aliphatic_carboxylic_acid=2}"
OC(=O)CC(O)=O,-,R935502,M7880,-,-,malonic acid,Koerner,charochkina,A5793,-,-,-,3.14,Log unit,25,?C,OC(=O)CC(=O)O,"{co2h=2, aliphatic_carboxylic_acid=2}"
OC(=O)CC([O-])=O,-,R935503,M7880,-,-,malonic acid,Koerner,charochkina,A5793,-,-,-,5.4,Log unit,25,?C,OC(=O)CC(=O)[O-],"{co2h=2, aliphatic_carboxylic_acid=2}"
OC(=O)CCC(O)=O,-,R935504,M5500,-,-,succinic acid,Koerner,charochkina,A5793,-,-,-,4.5,Log unit,25,?C,OC(=O)CCC(=O)O,"{co2h=2, aliphatic_carboxylic_acid=2}"
OC(=O)CCC([O-])=O,-,R935505,M5500,-,-,succinic acid,Koerner,charochkina,A5793,-,-,-,4.9,Log unit,25,?C,OC(=O)CCC(=O)[O-],"{co2h=7, aliphatic_carboxylic_acid=7}"
OC(=O)CCCC(O)=O,-,R935506,M4960,-,-,glutaric acid,Koerner,charochkina,A5793,-,-,-,4.64,Log unit,25,?C,OC(=O)CCCC(=O)O,"{co2h=2, aliphatic_carboxylic_acid=2}"
OC(=O)CCCC([O-])=O,-,R935507,M4960,-,-,glutaric acid,Koerner,charochkina,A5793,-,-,-,4.71,Log unit,25,?C,OC(=O)CCCC(=O)[O-],"{co2h=8, aliphatic_carboxylic_acid=8}"
OC(=O)CCCCC(O)=O,-,R935508,M12445,-,-,adipic acid,Koerner,charochkina,A5793,-,-,-,4.58,Log unit,25,?C,OC(=O)CCCCC(=O)O,"{co2h=2, aliphatic_carboxylic_acid=2}"
OC(=O)CCCCC([O-])=O,-,R935509,M12445,-,-,adipic acid,Koerner,charochkina,A5793,-,-,-,4.7,Log unit,25,?C,OC(=O)CCCCC(=O)[O-],"{co2h=9, aliphatic_carboxylic_acid=9}"
OC(=O)CCCCCC(O)=O,-,R935510,M12393,-,-,pimelic acid,Koerner,charochkina,A5793,-,-,-,4.8,Log unit,25,?C,OC(=O)CCCCCC(=O)O,"{co2h=2, aliphatic_carboxylic_acid=2}"
OC(=O)CCCCCC([O-])=O,-,R935511,M12393,-,-,pimelic acid,Koerner,charochkina,A5793,-,-,-,5.2,Log unit,25,?C,OC(=O)CCCCCC(=O)[O-],"{co2h=10, aliphatic_carboxylic_acid=10}"
OC(=O)CCCCCCC(O)=O,-,R935512,M10869,-,-,SUBERIC ACID,Koerner,charochkina,A5793,-,-,-,4.82,Log unit,25,?C,OC(=O)CCCCCCC(=O)O,"{co2h=2, aliphatic_carboxylic_acid=2}"
OC(=O)CCCCCCC([O-])=O,-,R935513,M10869,-,-,SUBERIC ACID,Koerner,charochkina,A5793,-,-,-,5.2,Log unit,25,?C,OC(=O)CCCCCCC(=O)[O-],"{co2h=2, aliphatic_carboxylic_acid=2}"
OC(=O)CCCCCCCC(O)=O,-,R935514,M684,-,-,azelaic acid,Koerner,charochkina,A5793,-,-,-,4.84,Log unit,25,?C,OC(=O)CCCCCCCC(=O)O,"{co2h=2, aliphatic_carboxylic_acid=2}"
OC(=O)CCCCCCCC([O-])=O,-,R935515,M684,-,-,azelaic acid,Koerner,charochkina,A5793,-,-,-,5.2,Log unit,25,?C,OC(=O)CCCCCCCC(=O)[O-],"{co2h=2, aliphatic_carboxylic_acid=2}"
CC(C(O)=O)C(O)=O,-,R935516,M21151,-,-,Methylmalonic acid,Koerner,charochkina,A5793,-,-,-,3.36,Log unit,25,?C,OC(=O)C(C)C(=O)O,"{co2h=2, aliphatic_carboxylic_acid=2}"
CC(C(O)=O)C([O-])=O,-,R935517,M21151,-,-,Methylmalonic acid,Koerner,charochkina,A5793,-,-,-,5.5,Log unit,25,?C,OC(=O)C(C)C(=O)[O-],"{co2h=2, aliphatic_carboxylic_acid=2}"
CCC(C(O)=O)C(O)=O,-,R935518,M22253,-,-,ETHYLMALONIC ACID,Koerner,charochkina,A5793,-,-,-,3.3,Log unit,25,?C,OC(=O)C(C(=O)O)CC,"{co2h=2, aliphatic_carboxylic_acid=2}"
CCC(C(O)=O)C([O-])=O,-,R935519,M22253,-,-,ETHYLMALONIC ACID,Koerner,charochkina,A5793,-,-,-,5.5,Log unit,25,?C,OC(=O)C(C(=O)[O-])CC,"{co2h=6, aliphatic_carboxylic_acid=6}"
CCCC(C(O)=O)C(O)=O,-,R935520,M22536,-,-,n-Propylmalonic acid,Koerner,charochkina,A5793,-,-,-,3.3,Log unit,25,?C,OC(=O)C(C(=O)O)CCC,"{co2h=2, aliphatic_carboxylic_acid=2}"
CCCC(C(O)=O)C([O-])=O,-,R935521,M22536,-,-,n-Propylmalonic acid,Koerner,charochkina,A5793,-,-,-,5.54,Log unit,25,?C,OC(=O)C(C(=O)[O-])CCC,"{co2h=2, aliphatic_carboxylic_acid=2}"
CC(C)C(C(O)=O)C(O)=O,-,R935522,M67109,-,-,Isopropylmalonic acid,Koerner,charochkina,A5793,-,-,-,3.3,Log unit,25,?C,OC(=O)C(C(=O)O)C(C)C,"{co2h=2, aliphatic_carboxylic_acid=2}"
CC(C)C(C(O)=O)C([O-])=O,-,R935523,M67109,-,-,Isopropylmalonic acid,Koerner,charochkina,A5793,-,-,-,5.58,Log unit,25,?C,OC(=O)C(C(=O)[O-])C(C)C,"{co2h=2, aliphatic_carboxylic_acid=2}"
CC(C)(C(O)=O)C(O)=O,-,R935524,M8180,-,-,DIMETHYLMALONIC ACID,Koerner,charochkina,A5793,-,-,-,3.5,Log unit,25,?C,OC(=O)C(C)(C)C(=O)O,"{co2h=2, aliphatic_carboxylic_acid=2}"
CC(C)(C(O)=O)C([O-])=O,-,R935525,M8180,-,-,DIMETHYLMALONIC ACID,Koerner,charochkina,A5793,-,-,-,5.43,Log unit,25,?C,OC(=O)C(C)(C)C(=O)[O-],"{co2h=2, aliphatic_carboxylic_acid=2}"
CCC(C)(C(O)=O)C(O)=O,-,R935526,M67071,-,-,methylethylmalonic acid,Koerner,charochkina,A5793,-,-,-,3,Log unit,25,?C,OC(=O)C(C)(C(=O)O)CC,"{co2h=2, aliphatic_carboxylic_acid=2}"
CCC(C)(C(O)=O)C([O-])=O,-,R935527,M67071,-,-,methylethylmalonic acid,Koerner,charochkina,A5793,-,-,-,6.1,Log unit,25,?C,OC(=O)C(C)(C(=O)[O-])CC,"{co2h=2, aliphatic_carboxylic_acid=2}"
CCC(CC)(C(O)=O)C(O)=O,-,R935528,M21092,-,-,Diethylmalonic acid,Koerner,charochkina,A5793,-,-,-,2.48,Log unit,25,?C,OC(=O)C(C(=O)O)(CC)CC,"{co2h=2, aliphatic_carboxylic_acid=2}"
CCCC(CC)(C(O)=O)C(O)=O,-,R935529,M124376,-,-,ethyl-n-propylmalonic acid,Koerner,charochkina,A5793,-,-,-,2.43,Log unit,25,?C,OC(=O)C(C(=O)O)(CC)CCC,"{co2h=2, aliphatic_carboxylic_acid=2}"
CCCC(CCC)(C(O)=O)C(O)=O,-,R935530,M69900,-,-,di-n-Propylmalonic acid,Koerner,charochkina,A5793,-,-,-,2.355,Log unit,25,?C,OC(=O)C(C(=O)O)(CCC)CCC,"{co2h=2, aliphatic_carboxylic_acid=2}"
CC(C(C)C(O)=O)C(O)=O,-,R935531,M22180,-,-,"meso-alpha,alpha'-dimethylpyrotartaric acid",Koerner,charochkina,A5793,-,-,-,4.1,Log unit,25,?C,OC(=O)C(C)C(C(=O)O)C,"{co2h=2, aliphatic_carboxylic_acid=2}"
CC(C(C)C([O-])=O)C(O)=O,-,R935532,M22180,-,-,"meso-alpha,alpha'-dimethylpyrotartaric acid",Koerner,charochkina,A5793,-,-,-,5,Log unit,25,?C,OC(=O)C(C(C(=O)[O-])C)C,"{co2h=8, aliphatic_carboxylic_acid=8}"
CCC(CC(O)=O)C(O)=O,-,R935533,M67347,-,-,ethylpyrotartaric acid,Koerner,charochkina,A5793,-,-,-,4.38,Log unit,25,?C,OC(=O)CC(C(=O)O)CC,"{co2h=2, aliphatic_carboxylic_acid=2}"
CCC(CC)(CC(O)=O)C(O)=O,-,R935534,M30548,-,-,"alpha,alpha-diethylprotartaric acid",Koerner,charochkina,A5793,-,-,-,4.14,Log unit,25,?C,OC(=O)CC(C(=O)O)(CC)CC,"{co2h=2, aliphatic_carboxylic_acid=2}"
CCC(C(CC)C(O)=O)C(O)=O,-,R935535,M24808,-,-,"meso-alpha,alpha'-diethylprotartaric acid",Koerner,charochkina,A5793,-,-,-,3.93,Log unit,25,?C,OC(=O)C(CC)C(C(=O)O)CC,"{co2h=2, aliphatic_carboxylic_acid=2}"
CCC(C(CC)C([O-])=O)C(O)=O,-,R935536,M24808,-,-,"meso-alpha,alpha'-diethylprotartaric acid",Koerner,charochkina,A5793,-,-,-,6.1,Log unit,25,?C,OC(=O)C(CC)C(C(=O)[O-])CC,"{co2h=2, aliphatic_carboxylic_acid=2}"