"SMILES","CASRN","RECORDID","MOLECULEID","EXTERNALID","N","NAME","NAME","INTRODUCER","MODIFIER","ARTICLEID","PUBMEDID","PAGE","TABLE","pKa (smiles as ob. cond.) {measured}","UNIT {pKa (smiles as ob. cond.)}","pKa (smiles as ob. cond.) {measured, converted}","UNIT {pKa (smiles as ob. cond.)}","Ionizable centre (smiles)","IC group detected","AtomNR of IC","groupsAndICs","IC smiles given","IC group given","Temperature","UNIT {Temperature}","MultiGroupDetection","COMMENTS","INCHI_KEY"
"NC1=CC=C(SC2=CC=C(C=C2)N(=O)=O)C=C1","-","R945433","M18373","-","-","4-(p-nitro)phenylthioaniline","-","Koerner","charochkina","A5793","-","-","-","2.99","Log unit","2.99","Log unit","Nc1ccc(cc1)Sc1ccc(N(=O)=O)cc1","4","","{nr2=[4, 12]}","c(cc(c1)N)c(c1)S-c(ccc2N(=O)=O)cc2","nr2","25.0","?C","true","-","ZBPKGHOGUVVDLF-UHFFFAOYSA"
"NC1=C(C=C(C=C1)C(F)(F)F)N(=O)=O","-","R945434","M66285","-","-","2-Nitro-4-trifluoromethylaniline","-","Koerner","charochkina","A5793","-","-","-","-2.28","Log unit","-2.28","Log unit","Nc1ccc(cc1N(=O)=O)C(F)(F)F","9","","{nr2=[9, 11]}","c(cc(c1)C(F)(F)F)c(N)c1N(=O)=O","nr2","25.0","?C","true","-","ATXBGHLILIABGX-UHFFFAOYSA"
"NC1=CC(=CC(=C1)C(F)(F)F)N(=O)=O","-","R945435","M1107110","-","-","3-nitro-5-trifluoromethylaniline","-","Koerner","charochkina","A5793","-","-","-","0.82","Log unit","0.82","Log unit","Nc1cc(cc(c1)C(F)(F)F)N(=O)=O","8","","{nr2=[8, 11]}","c(c(cc1C(F)(F)F)N)c(c1)N(=O)=O","nr2","25.0","?C","true","-","LTVWXWWSCLXXAT-UHFFFAOYSA"
"NC1=CC(=C(C=C1)N(=O)=O)C(F)(F)F","-","R945436","M66256","-","-","4-Nitro-3-trifluoromethylaniline","-","Koerner","charochkina","A5793","-","-","-","-0.05","Log unit","-0.05","Log unit","N(=O)(=O)c1ccc(cc1C(F)(F)F)N","3","","{nr2=[3, 13]}","c(cc(N(=O)=O)c1C(F)(F)F)c(c1)N","nr2","25.0","?C","true","-","UTKUVRNVYFTEHF-UHFFFAOYSA"
"CCCN(CCC)C1=CC=C(C=C1)N=O","-","R945437","M1107111","-","-","4-nitroso-N,N-di-n-propylaniline","-","Koerner","charochkina","A5793","-","-","-","4.17","Log unit","4.17","Log unit","N(c1ccc(N=O)cc1)(CCC)CCC","6","","{nr2=[6]}","O=Nc(ccc1N(CCC)CCC)cc1","nr2","25.0","?C","","-","LPYSUAYHEFGZDJ-UHFFFAOYSA"
"NC1=C(F)C(F)=C(F)C(F)=C1F","-","R945438","M7482","-","-","1,2,3,4,5-pentafluoroaniline","-","Koerner","charochkina","A5793","-","-","-","-0.28","Log unit","-0.28","Log unit","Nc1c(c(c(F)c(F)c1F)F)F","7","","{nr2=[7]}","F-c(c(F)c(F)c1N)c(F)c1F","nr2","25.0","?C","","-","NOXLGCOSAFGMDV-UHFFFAOYSA"
"NC1=CC(OC(F)(F)C(F)(F)F)=CC=C1","-","R945439","M1107112","-","-","3-pentafluoroethoxyaniline","-","Koerner","charochkina","A5793","-","-","-","3.24","Log unit","3.24","Log unit","Nc1cccc(OC(F)(F)C(F)(F)F)c1","14","","{nr2=[14]}","c(ccc1OC(F)(F)C(F)(F)F)c(c1)N","nr2","25.0","?C","","-","TYANODHKVBDSQB-UHFFFAOYSA"
"NC1=CC=C(OC(F)(F)C(F)(F)F)C=C1","-","R945440","M1107113","-","-","4-pentafluoroethoxyaniline","-","Koerner","charochkina","A5793","-","-","-","3.78","Log unit","3.78","Log unit","Nc1ccc(cc1)OC(F)(F)C(F)(F)F","14","","{nr2=[14]}","c(cc(c1)OC(F)(F)C(F)(F)F)c(c1)N","nr2","25.0","?C","","-","MDODMMABKXPUEN-UHFFFAOYSA"
"CCC(C)(C)NC1=CC=CC=C1","-","R945441","M1107114","-","-","N-t-pentylaniline","-","Koerner","charochkina","A5793","-","-","-","6.75","Log unit","6.75","Log unit","N(c1ccccc1)C(C)(C)CC","4","","{nr2=[4]}","c(ccc1NC(C)(C)CC)cc1","nr2","25.0","?C","","-","GFJVNESVZAIIJL-UHFFFAOYSA"
"N(C1=CC=CC=C1)C1=CC=CC=C1","-","R945442","M2076","-","-","N-Phenylaniline","-","Koerner","charochkina","A5793","-","-","-","0.78","Log unit","0.78","Log unit","N(c1ccccc1)c1ccccc1","4","","{nr2=[4]}","c(ccc1Nc(ccc2)cc2)cc1","nr2","25.0","?C","","-","DMBHHRLKUKUOEG-UHFFFAOYSA"
"NC1=CC=CC=C1SC1=CC=CC=C1","-","R945443","M1107115","-","-","2-phenylthioaniline","-","Koerner","charochkina","A5793","-","-","-","2.5","Log unit","2.5","Log unit","Nc1c(Sc2ccccc2)cccc1","13","","{nr2=[13]}","c(ccc1)c(c1)S-c(ccc2)c(c2)N","nr2","25.0","?C","","-","DGBISJKLNVVJGD-UHFFFAOYSA"
"NC1=CC=C(SC2=CC=CC=C2)C=C1","-","R945444","M108472","-","-","4-phenylthioaniline","-","Koerner","charochkina","A5793","-","-","-","3.8","Log unit","3.8","Log unit","Nc1ccc(Sc2ccccc2)cc1","11","","{nr2=[11]}","c(ccc1)c(c1)S-c(ccc2N)cc2","nr2","25.0","?C","","-","TZQVSGOOKNNDFU-UHFFFAOYSA"
"CCCOC(=O)C1=CC=C(N)C=C1","-","R945445","M7167","-","-","4-propoxycarbonylaniline","-","Koerner","charochkina","A5793","-","-","-","2.49","Log unit","2.49","Log unit","Nc1ccc(cc1)C(=O)OCCC","12","","{nr2=[12]}","c(cc(c1)C(=O)OCCC)c(c1)N","nr2","25.0","?C","","-","NBFQYHKHPBMJJV-UHFFFAOYSA"
"CCCNC1=CC=CC=C1","-","R945446","M1274","-","-","N-n-Propylaniline","-","Koerner","charochkina","A5793","-","-","-","4.8","Log unit","4.8","Log unit","N(c1ccccc1)CCC","4","","{nr2=[4]}","c(ccc1NCCC)cc1","nr2","25.0","?C","","-","CDZOGLJOFWFVOZ-UHFFFAOYSA"
"CCCC1=CC=CC=C1N","-","R945447","M12379","-","-","2-n-propylaniline","-","Koerner","charochkina","A5793","-","-","-","4.36","Log unit","4.36","Log unit","Nc1ccccc1CCC","9","","{nr2=[9]}","c(ccc1CCC)cc1N","nr2","25.0","?C","","-","WKURVXXDGMYSDP-UHFFFAOYSA"
"NC1=CC(OC(F)(F)C(F)F)=CC=C1","-","R945448","M67878","-","-","3-(1,1,2,2-tetrafluoro)ethoxyaniline","-","Koerner","charochkina","A5793","-","-","-","3.38","Log unit","3.38","Log unit","Nc1cccc(OC(F)(F)C(F)F)c1","13","","{nr2=[13]}","c(ccc1OC(F)(F)C(F)F)c(c1)N","nr2","25.0","?C","","-","MWDPEBMCVXNSPL-UHFFFAOYSA"
"NC1=CC=C(OC(F)(F)C(F)F)C=C1","-","R945449","M1107116","-","-","4-(1,1,2,2-tetrafluoro)ethoxyaniline","-","Koerner","charochkina","A5793","-","-","-","3.98","Log unit","3.98","Log unit","Nc1ccc(cc1)OC(F)(F)C(F)F","13","","{nr2=[13]}","c(cc(c1)OC(F)(F)C(F)F)c(c1)N","nr2","25.0","?C","","-","ZQQSVTYLRGGCEI-UHFFFAOYSA"
"NC1=CC(SC(F)(F)C(F)F)=CC=C1","-","R945450","M1107117","-","-","3-(1,1,2,2-tetrafluoro)ethylthioaniline","-","Koerner","charochkina","A5793","-","-","-","3.39","Log unit","3.39","Log unit","Nc1cc(SC(F)(F)C(F)F)ccc1","13","","{nr2=[13]}","S(C(F)(F)C(F)F)-c(ccc1)cc1N","nr2","25.0","?C","","-","RAFIUOCQESIEPE-UHFFFAOYSA"
"NC1=CC=C(SC(F)(F)C(F)F)C=C1","-","R945451","M1107118","-","-","4-(1,1,2,2-tetrafluoro)ethylthioaniline","-","Koerner","charochkina","A5793","-","-","-","2.87","Log unit","2.87","Log unit","Nc1ccc(SC(F)(F)C(F)F)cc1","11","","{nr2=[11]}","S(C(F)(F)C(F)F)-c(ccc1N)cc1","nr2","25.0","?C","","-","ZAMCZVDZYLXPRW-UHFFFAOYSA"
"CN(C)C1=C(C)C=CC=C1C","-","R945452","M23590","-","-","N,N,2,6-Tetramethylaniline","-","Koerner","charochkina","A5793","-","-","-","5.56","Log unit","5.56","Log unit","N(c1c(cccc1C)C)(C)C","5","","{nr2=[5]}","c(cc(C)c1N(C)C)cc1C","nr2","25.0","?C","","-","SCVRZFQSPISLTD-UHFFFAOYSA"
"CC1=CC(C)=C(C)C(N)=C1C","-","R945453","M1107119","-","-","2,3,5,6-tetramethylaniline","-","Koerner","charochkina","A5793","-","-","-","4.3","Log unit","4.3","Log unit","Nc1c(c(cc(c1C)C)C)C","4","","{nr2=[4]}","c(c(c(c1N)C)C)c(c1C)C","nr2","25.0","?C","","-","ZCZPJZYQBNOPLT-UHFFFAOYSA"
"CC1=C(C)C(=C(C)C(C)=C1N)N(=O)=O","-","R945454","M32800","-","-","2,3,5,6-TETRAMETHYL-4-NITROANILINE","-","Koerner","charochkina","A5793","-","-","-","2.36","Log unit","2.36","Log unit","N(=O)(=O)c1c(c(c(N)c(c1C)C)C)C","1","","{nr2=[1, 7]}","O=N(=O)-c(c(c(c1N)C)C)c(c1C)C","nr2","25.0","?C","true","-","HALLPDRKHGFBAB-UHFFFAOYSA"
"NC1=CC=C(SC#N)C=C1","-","R945455","M27669","-","-","4-thiocyanatoaniline","-","Koerner","charochkina","A5793","-","-","-","2.9","Log unit","2.9","Log unit","Nc1ccc(SC#N)cc1","7","","{nr2=[7]}","S(C#N)-c(ccc1N)cc1","nr2","25.0","?C","","-","NJYFRQQXXXRJHK-UHFFFAOYSA"
"NC1=C(Cl)C=C(Cl)C(Cl)=C1","-","R945456","M3513","-","-","2,4,5-Trichloroaniline","-","Koerner","charochkina","A5793","-","-","-","1.09","Log unit","1.09","Log unit","Nc1c(cc(Cl)c(Cl)c1)Cl","6","","{nr2=[6]}","Cl-c(cc(Cl)c1N)c(Cl)c1","nr2","25.0","?C","","-","GUMCAKKKNKYFEB-UHFFFAOYSA"
"NC1=C(Cl)C=C(Cl)C=C1Cl","-","R945457","M7159","-","-","2,4,6-trichloroaniline","-","Koerner","charochkina","A5793","-","-","-","-0.03","Log unit","-0.03","Log unit","Nc1c(cc(Cl)cc1Cl)Cl","6","","{nr2=[6]}","Cl-c(cc(Cl)c1N)cc1Cl","nr2","25.0","?C","","-","NATVSFWWYVJTAZ-UHFFFAOYSA"
"NC1=CC=CC=C1OC(F)(F)F","-","R945458","M69690","-","-","2-trifluoromethoxyaniline","-","Koerner","charochkina","A5793","-","-","-","2.44","Log unit","2.44","Log unit","Nc1ccccc1OC(F)(F)F","11","","{nr2=[11]}","c(ccc1OC(F)(F)F)cc1N","nr2","25.0","?C","","-","ZFCOUBUSGHLCDT-UHFFFAOYSA"
"NC1=CC(OC(F)(F)F)=CC=C1","-","R945459","M69689","-","-","3-trifluoromethoxyaniline","-","Koerner","charochkina","A5793","-","-","-","3.25","Log unit","3.25","Log unit","Nc1cccc(c1)OC(F)(F)F","4","","{nr2=[4]}","c(cc(c1)N)cc1OC(F)(F)F","nr2","25.0","?C","","-","SADHVOSOZBAAGL-UHFFFAOYSA"
"NC1=CC=C(OC(F)(F)F)C=C1","-","R945460","M66442","-","-","4-trifluoromethoxyaniline","-","Koerner","charochkina","A5793","-","-","-","3.82","Log unit","3.82","Log unit","Nc1ccc(cc1)OC(F)(F)F","11","","{nr2=[11]}","c(cc(c1)OC(F)(F)F)c(c1)N","nr2","25.0","?C","","-","XUJFOSLZQITUOI-UHFFFAOYSA"
"NC1=CC(=CC=C1)C(F)(F)F","-","R945461","M11729","-","-","3-trifluoromethyl-aniline","-","Koerner","charochkina","A5793","-","-","-","3.49","Log unit","3.49","Log unit","Nc1cccc(C(F)(F)F)c1","10","","{nr2=[10]}","c(ccc1C(F)(F)F)c(c1)N","nr2","25.0","?C","","-","VIUDTWATMPPKEL-UHFFFAOYSA"
"NC1=CC=C(C=C1)C(F)(F)F","-","R945462","M7825","-","-","4-trifluoromethyl-aniline","-","Koerner","charochkina","A5793","-","-","-","2.45","Log unit","2.45","Log unit","Nc1ccc(cc1)C(F)(F)F","10","","{nr2=[10]}","c(cc(c1)C(F)(F)F)c(c1)N","nr2","25.0","?C","","-","ODGIMMLDVSWADK-UHFFFAOYSA"
"NC1=CC(=CC=C1)S(=O)(=O)C(F)(F)F","-","R945463","M1107120","-","-","3-trifluoromethylsulphonylaniline","-","Koerner","charochkina","A5793","-","-","-","1.79","Log unit","1.79","Log unit","Nc1cc(S(=O)(=O)C(F)(F)F)ccc1","13","","{nr2=[13]}","S(=O)(=O)(C(F)(F)F)-c(ccc1)cc1N","nr2","25.0","?C","","-","LZYNHEOVZMLXIO-UHFFFAOYSA"
"NC1=CC=C(C=C1)S(=O)(=O)C(F)(F)F","-","R945464","M1107121","-","-","4-trifluoromethylsulphonylaniline","-","Koerner","charochkina","A5793","-","-","-","-0.01","Log unit","-0.01","Log unit","Nc1ccc(S(=O)(=O)C(F)(F)F)cc1","11","","{nr2=[11]}","S(=O)(=O)(C(F)(F)F)-c(ccc1N)cc1","nr2","25.0","?C","","-","GNVFCXUZQGCXPB-UHFFFAOYSA"
"NC1=CC(SC(F)(F)F)=CC=C1","-","R945465","M66195","-","-","3-trifluoromethylthioaniline","-","Koerner","charochkina","A5793","-","-","-","3.3","Log unit","3.3","Log unit","Nc1cc(SC(F)(F)F)ccc1","11","","{nr2=[11]}","S(C(F)(F)F)-c(ccc1)cc1N","nr2","25.0","?C","","-","DENPAKQJZNDKEL-UHFFFAOYSA"
"CN(C)C1=CC=CC=C1C","-","R945466","M4926","-","-","N,N,2-TRIMETHYLANILINE","-","Koerner","charochkina","A5793","-","-","-","5.895","Log unit","5.895","Log unit","N(c1ccccc1C)(C)C","4","","{nr2=[4]}","c(ccc1N(C)C)cc1C","nr2","25.0","?C","","-","JDEJGVSZUIJWBM-UHFFFAOYSA"
"CN(C)C1=CC=CC(C)=C1","-","R945467","M1703","-","-","N,N,3-Trimethylaniline","-","Koerner","charochkina","A5793","-","-","-","5.23","Log unit","5.23","Log unit","N(c1cccc(c1)C)(C)C","7","","{nr2=[7]}","c(cc(c1)C)cc1N(C)C","nr2","25.0","?C","","-","CWOMTHDOJCARBY-UHFFFAOYSA"
"CN(C)C1=CC=C(C)C=C1","-","R945468","M3619","-","-","N,N,4-TRIMETHYLANILINE","-","Koerner","charochkina","A5793","-","-","-","5.6195","Log unit","5.6195","Log unit","N(c1ccc(cc1)C)(C)C","4","","{nr2=[4]}","c(cc(c1)N(C)C)c(c1)C","nr2","25.0","?C","","-","GYVGXEWAOAAJEU-UHFFFAOYSA"
"CNC1=C(C)C=CC=C1C","-","R945469","M1107122","-","-","N,2,6-trimethylaniline","-","Koerner","charochkina","A5793","-","-","-","5.3","Log unit","5.3","Log unit","N(c1c(cccc1C)C)C","5","","{nr2=[5]}","c(cc(C)c1NC)cc1C","nr2","25.0","?C","","-","NLGKRVNANIZGNI-UHFFFAOYSA"
"CC1=CC(C)=C(N)C(C)=C1","-","R945470","M5942","-","-","2,4,6-Trimethylaniline","-","Koerner","charochkina","A5793","-","-","-","4.375","Log unit","4.375","Log unit","Nc1c(cc(cc1C)C)C","8","","{nr2=[8]}","c(c(cc1C)C)c(c1N)C","nr2","25.0","?C","","-","KWVPRPSXBZNOHS-UHFFFAOYSA"
"CC1=CC(N)=CC(C)=C1C","-","R945471","M69909","-","-","3,4,5-trimethyl-aniline","-","Koerner","charochkina","A5793","-","-","-","5.12","Log unit","5.12","Log unit","Nc1cc(c(c(c1)C)C)C","5","","{nr2=[5]}","c(c(cc1C)N)c(c1C)C","nr2","25.0","?C","","-","BXCUMAUHMPSRPZ-UHFFFAOYSA"
"NC1=CC=C(C=C1)N=NC1=CC=CC=C1","-","R945472","M17217","-","-","4-Aminoazobenzene","-","Koerner","charochkina","A5793","-","-","-","3.07","Log unit","3.07","Log unit","Nc1ccc(N=Nc2ccccc2)cc1","10","","{nr2=[10]}","c(ccc1N=N-c(ccc2N)cc2)cc1","nr2","25.0","?C","","-","QPQKUYVSJWQSDY-UHFFFAOYSA"
"CC1=CC(=CC=C1)N=NC1=CC=C(N)C=C1","-","R945473","M714393","-","-","4-amino-3'-methylazobenzene","-","Koerner","charochkina","A5793","-","-","-","2.88","Log unit","2.88","Log unit","Nc1ccc(N=Nc2cccc(c2)C)cc1","10","","{nr2=[10]}","c(ccc1N=N-c(ccc2N)cc2)c(c1)C","nr2","25.0","?C","","-","KCOITMFSLVDOGO-UHFFFAOYSA"
"CC1=CC=C(C=C1)N=NC1=CC=C(N)C=C1","-","R945474","M987005","-","-","4-amino-4'-methylazobenzene","-","Koerner","charochkina","A5793","-","-","-","3.04","Log unit","3.04","Log unit","Nc1ccc(cc1)N=Nc1ccc(C)cc1","15","","{nr2=[15]}","c(cc(c1)N=N-c(ccc2C)cc2)c(c1)N","nr2","25.0","?C","","-","PBKCJNOFHGLNEZ-UHFFFAOYSA"
"CN(C)C1=CC=C(C=C1)N=NC1=CC=C(C=C1)C(C)(C)C","-","R945475","M1107123","-","-","4-t-butyl-4'-dimethylaminoazobenzene","-","Koerner","charochkina","A5793","-","-","-","2.27","Log unit","2.27","Log unit","N(c1ccc(N=Nc2ccc(cc2)C(C)(C)C)cc1)(C)C","16","","{nr2=[16]}","c1cc(C(C)(C)C)ccc1N=Nc1ccc(N(C)C)cc1","nr2","25.0","?C","","-","JWLFMUICIGZZCE-UHFFFAOYSA"
"CN(C)C1=CC=C(C=C1)N=NC1=CC=CC(=C1)C(O)=O","-","R945476","M35072","-","-","3-carboxy-4'-dimethylaminoazobenzene","-","Koerner","charochkina","A5793","-","-","-","2.64","Log unit","2.64","Log unit","N(c1ccc(N=Nc2cccc(c2)C(=O)O)cc1)(C)C","15","","{co2h=[6], nr2=[15]}","c(cc(c1)C(=O)O)cc1N=N-c(ccc2N(C)C)cc2","nr2","25.0","?C","","-","JAMPLPMVLCTBSB-UHFFFAOYSA"
"CN(C)C1=CC=C(C=C1)N=NC1=CC=C(C=C1)C([O-])=O","-","R945477","M31020","-","-","4-carboxy-4'-dimethylaminoazobenzene","-","Koerner","charochkina","A5793","-","-","-","2.35","Log unit","2.35","Log unit","N(c1ccc(cc1)N=Nc1ccc(C(=O)[O-])cc1)(C)C","17","","{nr2=[17]}","c(cc(c1)N=N-c(ccc2C(=O)[O-1])cc2)c(c1)N(C)C","nr2","25.0","?C","","-","WCKQPPQRFNHPRJ-UHFFFAOYSA"
"CN(C)C1=CC=C(C=C1)N=NC1=CC=C(Cl)C=C1","-","R945478","M26975","-","-","4-chloro-4'-dimethylaminoazobenzene","-","Koerner","charochkina","A5793","-","-","-","2.0","Log unit","2.0","Log unit","N(c1ccc(N=Nc2ccc(Cl)cc2)cc1)(C)C","11","","{nr2=[11]}","Cl-c(ccc1N=N-c(ccc2N(C)C)cc2)cc1","nr2","25.0","?C","","-","WQWHNMIYCHFRJK-UHFFFAOYSA"
"CN(C)C1=CC=C(C=C1)N=NC1=CC=CC=C1","-","R945479","M17219","-","-","4-dimethylaminoazobenzene","-","Koerner","charochkina","A5793","-","-","-","3.226","Log unit","3.226","Log unit","N(c1ccc(N=Nc2ccccc2)cc1)(C)C","10","","{nr2=[10]}","c(ccc1N=N-c(ccc2N(C)C)cc2)cc1","nr2","25.0","?C","","-","JCYPECIVGRXBMO-UHFFFAOYSA"
"CN(C)C1=CC=C(C=C1)N=NC1=CC=C(O)C=C1","-","R945480","M1107124","-","-","4-dimethylamino-4'-hydroxyazobenzene","-","Koerner","charochkina","A5793","-","-","-","3.4","Log unit","3.4","Log unit","N(c1ccc(N=Nc2ccc(O)cc2)cc1)(C)C","11","","{nr2=[11], oh=[0]}","O-c(ccc1N=N-c(ccc2N(C)C)cc2)cc1","nr2","25.0","?C","","-","CQKQINNUKSBEQR-UHFFFAOYSA"
"CN(C)C1=CC=C(C=C1)N=NC1=CC=C(O)C=C1","-","R945481","M1107124","-","-","4-dimethylamino-4'-hydroxyazobenzene","-","Koerner","charochkina","A5793","-","-","-","8.6","Log unit","8.6","Log unit","Oc1ccc(N=Nc2ccc(N(C)C)cc2)cc1","0","","{nr2=[11], oh=[0]}","O-c(ccc1N=N-c(ccc2N(C)C)cc2)cc1","oh","25.0","?C","","-","CQKQINNUKSBEQR-UHFFFAOYSA"
"CN(C)C1=CC=C(C=C1)N=NC1=CC=C(I)C=C1","-","R945482","M1107125","-","-","4-dimethylamino-4'-iodoazobenzene","-","Koerner","charochkina","A5793","-","-","-","2.06","Log unit","2.06","Log unit","N(c1ccc(N=Nc2ccc(I)cc2)cc1)(C)C","11","","{nr2=[11]}","I-c(ccc1N=N-c(ccc2N(C)C)cc2)cc1","nr2","25.0","?C","","-","JSCFDMNXBTVUTH-UHFFFAOYSA"
"COC(=O)C1=CC=C(C=C1)N=NC1=CC=C(C=C1)N(C)C","-","R945483","M1107126","-","-","4-dimethylamino-4'-methoxycarbonylazobenzene","-","Koerner","charochkina","A5793","-","-","-","2.6","Log unit","2.6","Log unit","N(c1ccc(cc1)N=Nc1ccc(C(=O)OC)cc1)(C)C","18","","{nr2=[18]}","c(cc(c1)N=N-c(ccc2C(=O)OC)cc2)c(c1)N(C)C","nr2","25.0","?C","","-","JTFDDDDHFROPQU-UHFFFAOYSA"
"CN(C)C1=CC=C(C=C1)N=NC1=CC=C(C)C=C1","-","R945484","M748193","-","-","4-dimethylamino-4'-methyl-azobenzene","-","Koerner","charochkina","A5793","-","-","-","2.31","Log unit","2.31","Log unit","N(c1ccc(N=Nc2ccc(cc2)C)cc1)(C)C","10","","{nr2=[10]}","c(cc(c1)N=N-c(ccc2N(C)C)cc2)c(c1)C","nr2","25.0","?C","","-","IPIZWPBCCYXHDW-UHFFFAOYSA"
"CN(C)C1=CC=C(C=C1)N=NC1=CC=C(C=C1)N(=O)=O","-","R945485","M26974","-","-","4-dimethylamino-4'-nitroazobenzene","-","Koerner","charochkina","A5793","-","-","-","1.81","Log unit","1.81","Log unit","N(=O)(=O)c1ccc(N=Nc2ccc(N(C)C)cc2)cc1","1","","{nr2=[1, 13]}","O=N(=O)-c(ccc1N=N-c(ccc2N(C)C)cc2)cc1","nr2","25.0","?C","true","-","LSFRFLVWCKLQTO-UHFFFAOYSA"
"CNC1=CC=C(C=C1SC)N=N","-","R945486","M1107127","-","-","4-methylamino-3-methylmercaptoazobenzene","-","Koerner","charochkina","A5793","-","-","-","2.03","Log unit","2.03","Log unit","N(c1c(SC)cc(cc1)N=N)C","10","","{nr2=[10]}","S(C)-c(cc(c1)N=N)c(c1)NC","nr2","25.0","?C","","-","GUVCTZJLRXAZJU-UHFFFAOYSA"
"CNC1=C(C)C=C(C=C1)N=N","-","R945487","M1107128","-","-","3-methyl-4-methylaminoazobenzene","-","Koerner","charochkina","A5793","-","-","-","2.94","Log unit","2.94","Log unit","N(c1ccc(cc1C)N=N)C","5","","{nr2=[5]}","c(cc(c1C)NC)c(c1)N=N","nr2","25.0","?C","","-","UMCKLWJNANSANI-UHFFFAOYSA"
"CC(N)CCC1=CC=CC=C1","-","R945488","M35558","-","-","(3-amino)butylbenzene","-","Koerner","charochkina","A5793","-","-","-","9.79","Log unit","9.79","Log unit","NC(CCc1ccccc1)C","7","","{nr2=[7]}","c(ccc1CCC(N)C)cc1","nr2","25.0","?C","","-","WECUIGDEWBNQJJ-UHFFFAOYSA"
"NCCCCC1=CC=CC=C1","-","R945489","M134","-","-","(4-amino)butylbenzene","-","Koerner","charochkina","A5793","-","-","-","10.36","Log unit","10.36","Log unit","NCCCCc1ccccc1","8","","{nr2=[8]}","c(ccc1CCCCN)cc1","nr2","25.0","?C","","-","AGNFWIZBEATIAK-UHFFFAOYSA"
"CC(N)C1=CC=CC=C1","-","R945490","M9951","-","-","(1-aminoethyl)benzene","-","Koerner","charochkina","A5793","-","-","-","9.35","Log unit","9.35","Log unit","NC(c1ccccc1)C","5","","{nr2=[5]}","c(ccc1C(N)C)cc1","nr2","25.0","?C","","-","RQEUFEKYXDPUSK-UHFFFAOYSA"
"NCCC1=CC=CC=C1","-","R945491","M764","-","-","(2-Aminoethyl)benzene","-","Koerner","charochkina","A5793","-","-","-","9.835","Log unit","9.835","Log unit","NCCc1ccccc1","6","","{nr2=[6]}","c(ccc1CCN)cc1","nr2","25.0","?C","","-","BHHGXPLMPWCGHP-UHFFFAOYSA"
"NCCC1=CC=C([O-])C(O)=C1","-","R945492","M12068","-","-","1-(2-amino)ethyl-3,4-dihydroxybenzene","-","Koerner","charochkina","A5793","-","-","-","10.63","Log unit","10.63","Log unit","NCCc1ccc([O-])c(O)c1","7","","{nr2=[7], oh=[9]}","[O-1]-c(ccc1CCN)c(O)c1","nr2","25.0","?C","","-","VYFYYTLLBUKUHU-UHFFFAOYSA"
"NCCC1=CC=C(O)C=C1","-","R945493","M2404","-","-","1-(2-amino)ethyl-4-hydroxybenzene","-","Koerner","charochkina","A5793","-","-","-","9.7","Log unit","9.7","Log unit","Oc1ccc(CCN)cc1","0","","{nr2=[7], oh=[0]}","O-c(ccc1CCN)cc1","oh","25.0","?C","","-","DZGWFCGJZKJUFP-UHFFFAOYSA"
"NCCC1=CC=C([O-])C=C1","-","R945494","M2404","-","-","1-(2-amino)ethyl-4-hydroxybenzene","-","Koerner","charochkina","A5793","-","-","-","10.9","Log unit","10.9","Log unit","NCCc1ccc([O-])cc1","7","","{nr2=[7]}","[O-1]-c(ccc1CCN)cc1","nr2","25.0","?C","","-","DZGWFCGJZKJUFP-UHFFFAOYSA"
"CC(CN)C1=CC=CC=C1","-","R945495","M565","-","-","(2-amino-1-hydroxy)ethylbenzene","-","Koerner","charochkina","A5793","-","-","-","8.9","Log unit","8.9","Log unit","NCC(c1ccccc1)C","7","","{nr2=[7]}","c(ccc1C(C)CN)cc1","nr2","25.0","?C","","-","AXORVIZLPOGIRG-UHFFFAOYSA"
"NCC(O)C1=CC=C(O)C(O)=C1","-","R945496","M16999","-","-","1-(2-amino-1-hydroxy)ethyl-3,4-dihydroxybenzene","-","Koerner","charochkina","A5793","-","-","-","8.9","Log unit","8.9","Log unit","NCC(c1ccc(O)c(O)c1)O","8","","{nr2=[8], oh=[0, 6, 10]}","O-c(ccc1C(O)CN)c(O)c1","nr2","25.0","?C","","-","SFLSHLFXELFNJZ-UHFFFAOYSA"