"SMILES","CASRN","RECORDID","MOLECULEID","EXTERNALID","N","NAME","NAME","INTRODUCER","MODIFIER","ARTICLEID","PUBMEDID","PAGE","TABLE","pKa (smiles as ob. cond.) {measured}","UNIT {pKa (smiles as ob. cond.)}","pKa (smiles as ob. cond.) {measured, converted}","UNIT {pKa (smiles as ob. cond.)}","Ionizable centre (smiles)","IC group detected","AtomNR of IC","groupsAndICs","IC smiles given","IC group given","Temperature","UNIT {Temperature}","MultiGroupDetection","COMMENTS","INCHI_KEY"
"NC1=CN=CN=C1","-","R946316","M1106820","-","-","5-amino-pyrimidine","-","Koerner","charochkina","A5793","-","-","-","2.27","Log unit","2.27","Log unit","n1cncc(c1)N","0","","{n=[0, 2], nr2=[6]}","n(cnc1)cc1N","n","25.0","?C","true","-","FVLAYJRLBLHIPV-UHFFFAOYSA"
"NC1=NC=C(Br)C=N1","-","R946317","M746971","-","-","2-Amino-5-bromopyrimidine","-","Koerner","charochkina","A5793","-","-","-","1.95","Log unit","1.95","Log unit","n1cc(Br)cnc1N","3","","{n=[3, 7], nr2=[5]}","Br-c(cnc1N)cn1","n","25.0","?C","true","-","UHRHPPKWXSNZLR-UHFFFAOYSA"
"CC1=NC(N)=NC(C)=C1Br","-","R946318","M1106821","-","-","2-amino-5-bromo-4,6-dimethylpyrimidine","-","Koerner","charochkina","A5793","-","-","-","3.0","Log unit","3.0","Log unit","n1c(c(Br)c(nc1N)C)C","3","","{n=[3, 8], nr2=[5]}","Br-c(c(nc1N)C)c(n1)C","n","25.0","?C","true","-","ACJZZTRAZBNBGJ-UHFFFAOYSA"
"NC(=O)C1=CN=C(N)N=C1","-","R946319","M1106822","-","-","2-amino-5-carbamoylpyrimidine","-","Koerner","charochkina","A5793","-","-","-","1.8","Log unit","1.8","Log unit","n1cc(cnc1N)C(=O)N","0","","{n=[0, 8], nr2=[6, 9]}","n(cc(c1)C(=O)N)c(n1)N","n","25.0","?C","true","-","YBLLVQWJYBPMEB-UHFFFAOYSA"
"CC1=NC(N)=NC(C)=C1C(N)=O","-","R946320","M1106823","-","-","2-amino-5-carbamoyl-4,6-dimethylpyrimidine","-","Koerner","charochkina","A5793","-","-","-","3.11","Log unit","3.11","Log unit","n1c(nc(C)c(c1C)C(=O)N)N","0","","{n=[0, 2], nr2=[5, 11]}","n(c(nc1C)N)c(C)c1C(=O)N","n","25.0","?C","true","-","SBXLLPWEWVEYQF-UHFFFAOYSA"
"CC1=C(C=NC(N)=N1)C(N)=O","-","R946321","M1106824","-","-","2-amino-5-carbamoyl-4-methylpyrimidine","-","Koerner","charochkina","A5793","-","-","-","2.6","Log unit","2.6","Log unit","n1cc(c(C)nc1N)C(=O)N","0","","{n=[0, 9], nr2=[7, 10]}","n(cc(c1C)C(=O)N)c(n1)N","n","25.0","?C","true","-","KSTDULLCBVQJFJ-UHFFFAOYSA"
"NC1=CC(Cl)=NC=N1","-","R946322","M1106825","-","-","4-amino-6-chloropyrimidine","-","Koerner","charochkina","A5793","-","-","-","2.1","Log unit","2.1","Log unit","n1c(Cl)cc(nc1)N","2","","{n=[2, 4], nr2=[7]}","Cl-c(ncn1)cc1N","n","25.0","?C","true","-","DUKKRSPKJMHASP-UHFFFAOYSA"
"CC1=CC(C)=NC(N)=N1","-","R946323","M23573","-","-","2-AMINO-4,6-DIMETHYLPYRIMIDINE","-","Koerner","charochkina","A5793","-","-","-","4.675","Log unit","4.675","Log unit","n1c(nc(C)cc1C)N","0","","{n=[0, 2], nr2=[5]}","n(c(nc1C)N)c(c1)C","n","25.0","?C","true","-","IDQNBVFPZMCDDN-UHFFFAOYSA"
"CC1=NC(N)=NC(C)=C1C1=CC=C(C=C1)N(=O)=O","-","R946324","M1106826","-","-","2-amino-4,6-dimethyl-5-(4-nitrophenyl)pyrimidine","-","Koerner","charochkina","A5793","-","-","-","4.54","Log unit","4.54","Log unit","n1c(c(c2ccc(N(=O)=O)cc2)c(nc1N)C)C","9","","{n=[9, 14], nr2=[1, 11]}","O=N(=O)-c(ccc1c(c(nc2N)C)c(n2)C)cc1","n","25.0","?C","true","-","QDUFIRNUCDGRCA-UHFFFAOYSA"
"CC1=NC(N)=NC(C)=C1C1=CC(=CC=C1)N(=O)=O","-","R946325","M1106827","-","-","2-amino-4,6-dimethyl-5-(3-nitrophenyl)pyrimidine","-","Koerner","charochkina","A5793","-","-","-","4.17","Log unit","4.17","Log unit","n1c(c(c2cc(N(=O)=O)ccc2)c(nc1N)C)C","11","","{n=[11, 16], nr2=[1, 13]}","O=N(=O)-c(ccc1)cc1c(c(nc2N)C)c(n2)C","n","25.0","?C","true","-","HRZILDBEGTXKCS-UHFFFAOYSA"
"CC1=NC(N)=NC(C)=C1C1=CC=C(C=C1)N(=O)=O","-","R946326","M1106826","-","-","2-amino-4,6-dimethyl-5-(4-nitrophenyl)pyrimidine","-","Koerner","charochkina","A5793","-","-","-","4.24","Log unit","4.24","Log unit","n1c(c(c2ccc(N(=O)=O)cc2)c(nc1N)C)C","14","","{n=[9, 14], nr2=[1, 11]}","O=N(=O)-c(ccc1c(c(nc2N)C)c(n2)C)cc1","n","25.0","?C","true","-","QDUFIRNUCDGRCA-UHFFFAOYSA"
"CC1=NC(N)=NC(C)=C1C1=CC=CC=C1","-","R946327","M1106828","-","-","2-amino-4,6-dimethyl-5-phenylpyrimidine","-","Koerner","charochkina","A5793","-","-","-","4.61","Log unit","4.61","Log unit","n1c(c(c2ccccc2)c(nc1N)C)C","6","","{n=[6, 11], nr2=[8]}","c(ccc1c(c(nc2N)C)c(n2)C)cc1","n","25.0","?C","true","-","ZRTPJFHXKJDQPO-UHFFFAOYSA"
"CN(C)C1=C(C)C=NC=C1C","-","R946128","M1106757","-","-","3,5-dimethyl-4-dimethylaminopyridine","-","Koerner","charochkina","A5793","-","-","-","7.965","Log unit","7.965","Log unit","n1cc(C)c(N(C)C)c(c1)C","0","","{n=[0], nr2=[5]}","n(cc(C)c1N(C)C)cc1C","n","25.0","?C","","-","PCHBPPDCBTYPKN-UHFFFAOYSA"
"CNC1=C(C)C=NC=C1C","-","R946129","M1106758","-","-","3,5-dimethyl-4-methylaminopyridine","-","Koerner","charochkina","A5793","-","-","-","9.925","Log unit","9.925","Log unit","n1cc(C)c(NC)c(c1)C","0","","{n=[0], nr2=[5]}","n(cc(C)c1NC)cc1C","n","25.0","?C","","-","PPQDRZRRSLDPMW-UHFFFAOYSA"
"CC1=CN=CC(C)=C1N(=O)=O","-","R946130","M1106759","-","-","3,5-dimethyl-4-nitropyridine","-","Koerner","charochkina","A5793","-","-","-","2.51","Log unit","2.51","Log unit","n1cc(C)c(N(=O)=O)c(c1)C","0","","{n=[0], nr2=[5]}","n(cc(C)c1N(=O)=O)cc1C","n","25.0","?C","","-","DIBQGBVBDZKSBC-UHFFFAOYSA"
"CC1=CC=C(C(C)=N1)S([O-])(=O)=O","-","R946131","M1106760","-","-","2.6-dimethyl-3-sulphopyridine","-","Koerner","charochkina","A5793","-","-","-","4.89","Log unit","4.89","Log unit","n1c(c(S(=O)(=O)[O-])ccc1C)C","10","","{n=[10]}","S(=O)(=O)([O-1])-c(ccc1C)c(n1)C","n","25.0","?C","","-","BLFGITBDEIUSLI-UHFFFAOYSA"
"CC1=CC(=CC(C)=N1)S(O)(=O)=O","-","R946132","M1106761","-","-","2.6-dimethyl-4-sulphopyridine","-","Koerner","charochkina","A5793","-","-","-","5.09","Log unit","5.09","Log unit","n1c(cc(S(=O)(=O)O)cc1C)C","7","","{n=[7], so3h=[3, 3]}","S(=O)(=O)(O)-c(cc(n1)C)cc1C","n","25.0","?C","","-","BWNFBXMNEZOLLR-UHFFFAOYSA"
"CCOC1=CC=NC=C1","-","R946133","M124467","-","-","4-ETHOXYPYRIDINE","-","Koerner","charochkina","A5793","-","-","-","6.67","Log unit","6.67","Log unit","n1ccc(OCC)cc1","0","","{n=[0]}","n(ccc1OCC)cc1","n","25.0","?C","","-","YHTUIJUPUWSDQA-UHFFFAOYSA"
"CCOC(=O)C1=CN=CC=C1","-","R946134","M12789","-","-","3-ethoxycarbonylpyridine","-","Koerner","charochkina","A5793","-","-","-","3.35","Log unit","3.35","Log unit","n1cccc(c1)C(=O)OCC","0","","{n=[0]}","n(ccc1)cc1C(=O)OCC","n","25.0","?C","","-","XBLVHTDFJBKJLG-UHFFFAOYSA"
"CCOC(=O)C1=CC=NC=C1","-","R946135","M6651","-","-","4-ethoxycarbonylpyridine","-","Koerner","charochkina","A5793","-","-","-","3.45","Log unit","3.45","Log unit","n1ccc(C(=O)OCC)cc1","0","","{n=[0]}","n(ccc1C(=O)OCC)cc1","n","25.0","?C","","-","MCRPKBUFXAKDKI-UHFFFAOYSA"
"CCOC1=CC=NC=C1N(=O)=O","-","R946136","M109428","-","-","4-Ethoxy-3-nitropyridine","-","Koerner","charochkina","A5793","-","-","-","2.67","Log unit","2.67","Log unit","n1ccc(OCC)c(c1)N(=O)=O","0","","{n=[0], nr2=[9]}","n(ccc1OCC)cc1N(=O)=O","n","25.0","?C","","-","ABOSMHRLVUWEMT-UHFFFAOYSA"
"CCC1=CC=CC=N1","-","R946137","M7541","-","-","2-ETHYLPYRIDINE","-","Koerner","charochkina","A5793","-","-","-","5.98","Log unit","5.98","Log unit","n1ccccc1CC","0","","{n=[0]}","n(ccc1)c(c1)CC","n","25.0","?C","","-","NRGGMCIBEHEAIL-UHFFFAOYSA"
"CCC1=CN=CC=C1","-","R946138","M21403","-","-","3-ETHYLPYRIDINE","-","Koerner","charochkina","A5793","-","-","-","5.7","Log unit","5.7","Log unit","n1cccc(c1)CC","0","","{n=[0]}","n(ccc1)cc1CC","n","25.0","?C","","-","MFEIKQPHQINPRI-UHFFFAOYSA"
"CCC1=CC=NC=C1","-","R946139","M21402","-","-","4-ETHYLPYRIDINE","-","Koerner","charochkina","A5793","-","-","-","6.02","Log unit","6.02","Log unit","n1ccc(CC)cc1","0","","{n=[0]}","n(ccc1CC)cc1","n","25.0","?C","","-","VJXRKZJMGVSXPX-UHFFFAOYSA"
"CCC1=CN=CC(C)=C1","-","R946140","M1106762","-","-","3-ethyl-5-methylpyridine","-","Koerner","charochkina","A5793","-","-","-","6.3","Log unit","6.3","Log unit","n1cc(cc(c1)CC)C","0","","{n=[0]}","n(cc(c1)C)cc1CC","n","25.0","?C","","-","XTLUAAHBKVFNPF-UHFFFAOYSA"
"CCC1=CC=C(C)N=C1","-","R946141","M7588","-","-","3-Ethyl-6-methylpyridine","-","Koerner","charochkina","A5793","-","-","-","6.51","Log unit","6.51","Log unit","n1cc(ccc1C)CC","0","","{n=[0]}","n(cc(c1)CC)c(c1)C","n","25.0","?C","","-","NTSLROIKFLNUIJ-UHFFFAOYSA"
"CCC1=CN=CC=C1NC","-","R946142","M1106763","-","-","3-ethyl-4-methylaminopyridine","-","Koerner","charochkina","A5793","-","-","-","9.89","Log unit","9.89","Log unit","n1ccc(NC)c(c1)CC","0","","{n=[0], nr2=[4]}","n(ccc1NC)cc1CC","n","25.0","?C","","-","ROUXTDYIQSLWBU-UHFFFAOYSA"
"CCC1=CN=CC=C1N(=O)=O","-","R946143","M1106764","-","-","3-ethyl-4-nitropyridine","-","Koerner","charochkina","A5793","-","-","-","2.16","Log unit","2.16","Log unit","n1ccc(N(=O)=O)c(c1)CC","0","","{n=[0], nr2=[4]}","n(ccc1N(=O)=O)cc1CC","n","25.0","?C","","-","VGNVBKUYGALSMJ-UHFFFAOYSA"
"FC1=CC=CC=N1","-","R946144","M20256","-","-","2-FLUOROPYRIDINE","-","Koerner","charochkina","A5793","-","-","-","-0.44","Log unit","-0.44","Log unit","n1ccccc1F","0","","{n=[0]}","n(ccc1)c(F)c1","n","25.0","?C","","-","MTAODLNXWYIKSO-UHFFFAOYSA"
"FC1=CN=CC=C1","-","R946145","M20255","-","-","3-fluoro-pyridine","-","Koerner","charochkina","A5793","-","-","-","2.985","Log unit","2.985","Log unit","n1cccc(c1)F","0","","{n=[0]}","n(ccc1)cc1F","n","25.0","?C","","-","CELKOWQJPVJKIL-UHFFFAOYSA"
"O=CC1=CC=CC=N1","-","R946146","M24643","-","-","2-Formylpyridine","-","Koerner","charochkina","A5793","-","-","-","3.78","Log unit","3.78","Log unit","n1ccccc1C=O","0","","{n=[0]}","n(ccc1)c(c1)C=O","n","25.0","?C","","-","CSDSSGBPEUDDEE-UHFFFAOYSA"
"O=CC1=CN=CC=C1","-","R946147","M9205","-","-","3-FORMYLPYRIDINE","-","Koerner","charochkina","A5793","-","-","-","3.749","Log unit","3.749","Log unit","n1cccc(c1)C=O","0","","{n=[0]}","n(ccc1)cc1C=O","n","25.0","?C","","-","QJZUKDFHGGYHMC-UHFFFAOYSA"
"O=CC1=CC=NC=C1","-","R946148","M23868","-","-","4-FORMYLPYRIDINE","-","Koerner","charochkina","A5793","-","-","-","4.65","Log unit","4.65","Log unit","n1ccc(C=O)cc1","0","","{n=[0]}","n(ccc1C=O)cc1","n","25.0","?C","","-","BGUWFUQJCDRPTL-UHFFFAOYSA"
"OC1=C(C=O)N=CC=C1","-","R946149","M124444","-","-","2-FORMYL-3-HYDROXYPYRIDINE","-","Koerner","charochkina","A5793","-","-","-","3.4","Log unit","3.4","Log unit","n1cccc(c1C=O)O","0","","{n=[0], oh=[6]}","n(ccc1)c(c1O)C=O","n","25.0","?C","","-","ICDSWZBXIZCMHR-UHFFFAOYSA"
"OC1=CN=CC=C1C=O","-","R946150","M124468","-","-","4-FORMYL-3-HYDROXYPYRIDINE","-","Koerner","charochkina","A5793","-","-","-","4.05","Log unit","4.05","Log unit","n1ccc(C=O)c(c1)O","0","","{n=[0], oh=[8]}","n(ccc1C=O)cc1O","n","25.0","?C","","-","NVLPDIRQWJSXLZ-UHFFFAOYSA"
"COC1=C(C=O)N=CC=C1","-","R946151","M124445","-","-","2-FORMYL-3-METHOXYPYRIDINE","-","Koerner","charochkina","A5793","-","-","-","3.89","Log unit","3.89","Log unit","n1cccc(c1C=O)OC","0","","{n=[0]}","n(ccc1)c(c1OC)C=O","n","25.0","?C","","-","GHKILJGWQPBQGL-UHFFFAOYSA"
"COC1=CN=CC=C1C=O","-","R946152","M124469","-","-","4-FORMYL-3-METHOXYPYRIDINE","-","Koerner","charochkina","A5793","-","-","-","4.45","Log unit","4.45","Log unit","n1ccc(C=O)c(c1)OC","0","","{n=[0]}","n(ccc1C=O)cc1OC","n","25.0","?C","","-","FZWFPBUTNZWBEM-UHFFFAOYSA"
"CCCCCCC1=CC=CC=N1","-","R946153","M24699","-","-","2-Hexylpyridine","-","Koerner","charochkina","A5793","-","-","-","5.95","Log unit","5.95","Log unit","n1ccccc1CCCCCC","0","","{n=[0]}","n(ccc1)c(c1)CCCCCC","n","25.0","?C","","-","NZLJDTKLZIMONR-UHFFFAOYSA"
"[O-]C1=NC=CC=C1","-","R946154","M10935","-","-","2-hydroxypyridine","-","Koerner","charochkina","A5793","-","-","-","11.8","Log unit","11.8","Log unit","n1c([O-])cccc1","0","","{n=[0]}","n1c([O-1])cccc1","n","25.0","?C","","-","UBQKCCHYAOITMY-UHFFFAOYSA"
"OC1CCCC[NH2+]1","-","R946155","M718096","-","-","2-hydroxypyridine","-","Koerner","charochkina","A5793","-","-","-","0.75","Log unit","0.75","Log unit","OC1[NH2+][CH][CH][CH][CH]1","2","","{oh=[2]}","[n+1]1c(O)cccc1","oh","25.0","?C","","-","LEGMHPGYPXPXKB-UHFFFAOYSA"
"OC1=CN=CC=C1","-","R946156","M3450","-","-","3-hydroxypyridine","-","Koerner","charochkina","A5793","-","-","-","4.795","Log unit","4.795","Log unit","n1cccc(c1)O","0","","{n=[0], oh=[6]}","n(ccc1)cc1O","n","25.0","?C","","-","GRFNBEZIAWKNCO-UHFFFAOYSA"
"[O-]C1=CC=NC=C1","-","R946157","M3093","-","-","4-hydroxypyridine","-","Koerner","charochkina","A5793","-","-","-","11.12","Log unit","11.12","Log unit","n1ccc([O-])cc1","0","","{n=[0]}","n1ccc([O-1])cc1","n","25.0","?C","","-","GCNTZFIIOFTKIY-UHFFFAOYSA"
"OC1CC[NH2+]CC1","-","R946158","M75323","-","-","4-hydroxypyridine","-","Koerner","charochkina","A5793","-","-","-","3.2","Log unit","3.2","Log unit","OC1[CH][CH][NH2+][CH][CH]1","4","","{oh=[4]}","[n+1]1ccc(O)cc1","oh","25.0","?C","","-","HDOWRFHMPULYOA-UHFFFAOYSA"
"OC(C1=CC=CC=C1)C1=NC=CC=C1","-","R946159","M33225","-","-","2-hydroxybenzyl-pyridine","-","Koerner","charochkina","A5793","-","-","-","4.435","Log unit","4.435","Log unit","n1c(C(O)c2ccccc2)cccc1","0","","{n=[0], oh=[3]}","n1c(C(O)c2ccccc2)cccc1","n","25.0","?C","","-","UYESUYBXKHPUDU-UHFFFAOYSA"
"NNC(=O)C1=CN=CC=C1","-","R946160","M21649","-","-","3-hydrazinocarbonylpyridine","-","Koerner","charochkina","A5793","-","-","-","3.29","Log unit","3.29","Log unit","n1cccc(c1)C(=O)NN","0","","{n=[0], nr2=[8, 9]}","n(ccc1)cc1C(=O)NN","n","25.0","?C","","-","KFUSANSHCADHNJ-UHFFFAOYSA"
"NNC(=O)C1=CC=NC=C1","-","R946161","M9394","-","-","4-hydrazinocarbonylpyridine","-","Koerner","charochkina","A5793","-","-","-","3.52","Log unit","3.52","Log unit","n1ccc(C(=O)NN)cc1","0","","{n=[0], nr2=[6, 7]}","n(ccc1C(=O)NN)cc1","n","25.0","?C","","-","QRXWMOHMRWLFEY-UHFFFAOYSA"
"OC(C1=CC=CC=C1)(C1=CC=CC=C1)C1=NC=CC=C1","-","R946162","M1106765","-","-","2-(hydroxydiphenylmethyl)pyridine","-","Koerner","charochkina","A5793","-","-","-","3.9","Log unit","3.9","Log unit","n1c(C(c2ccccc2)(c2ccccc2)O)cccc1","0","","{n=[0], oh=[15]}","n1c(C(c2ccccc2)(c3ccccc3)O)cccc1","n","25.0","?C","","-","IBNTYLTYDKBLRC-UHFFFAOYSA"
"OCCC1=CC=NC=C1","-","R946163","M2342","-","-","4-(2-Hydroxyethyl)pyridine","-","Koerner","charochkina","A5793","-","-","-","5.6","Log unit","5.6","Log unit","n1ccc(CCO)cc1","0","","{n=[0], oh=[6]}","n(ccc1CCO)cc1","n","25.0","?C","","-","DWPYQDGDWBKJQL-UHFFFAOYSA"
"CC(O)C1=CC=CC(C)=N1","-","R946164","M1106766","-","-","2-(1-hydroxyethyl)-6-methylpyridine","-","Koerner","charochkina","A5793","-","-","-","5.2","Log unit","5.2","Log unit","n1c(cccc1C(O)C)C","0","","{n=[0], oh=[8]}","n(c(cc1)C)c(c1)C(O)C","n","25.0","?C","","-","CHPLROKJXHCPLY-UHFFFAOYSA"
"CC1=NC(CCO)=CC=C1","-","R946165","M68193","-","-","2-(2-hydroxyethyl)-6-methylpyridine","-","Koerner","charochkina","A5793","-","-","-","6.1","Log unit","6.1","Log unit","n1c(cccc1CCO)C","0","","{n=[0], oh=[9]}","n(c(cc1)C)c(c1)CCO","n","25.0","?C","","-","QJHOHDKABVJMEC-UHFFFAOYSA"
"COC1=C(O)C=CC=N1","-","R946166","M724594","-","-","3-hydroxy-2-methoxypyridine","-","Koerner","charochkina","A5793","-","-","-","2.1","Log unit","2.1","Log unit","n1cccc(c1OC)O","0","","{n=[0], oh=[6]}","n(ccc1)c(c1O)OC","n","25.0","?C","","-","RDBZAWZPZSBYDA-UHFFFAOYSA"
"COC1=C(O)C=CC=N1","-","R946167","M724594","-","-","3-hydroxy-2-methoxypyridine","-","Koerner","charochkina","A5793","-","-","-","8.65","Log unit","8.65","Log unit","Oc1c(nccc1)OC","6","","{n=[0], oh=[6]}","n(ccc1)c(c1O)OC","oh","25.0","?C","","-","RDBZAWZPZSBYDA-UHFFFAOYSA"
"OCC1=CC=CC=N1","-","R946168","M10371","-","-","2-hydroxymethylpyridine","-","Koerner","charochkina","A5793","-","-","-","4.83","Log unit","4.83","Log unit","n1ccccc1CO","0","","{n=[0], oh=[7]}","n(ccc1)c(c1)CO","n","25.0","?C","","-","SHNUBALDGXWUJI-UHFFFAOYSA"
"OCC1=CN=CC=C1","-","R946169","M7057","-","-","3-Hydroxymethylpyridine","-","Koerner","charochkina","A5793","-","-","-","4.925","Log unit","4.925","Log unit","n1cccc(c1)CO","0","","{n=[0], oh=[7]}","n(ccc1)cc1CO","n","25.0","?C","","-","MVQVNTPHUGQQHK-UHFFFAOYSA"
"OCC1=CC=NC=C1","-","R946170","M8805","-","-","4-Hydroxymethylpyridine","-","Koerner","charochkina","A5793","-","-","-","5.39","Log unit","5.39","Log unit","n1ccc(CO)cc1","0","","{n=[0], oh=[5]}","n(ccc1CO)cc1","n","25.0","?C","","-","PTMBWNZJOQBTBK-UHFFFAOYSA"
"CC1=NC(CO)=CC=C1","-","R946171","M68702","-","-","2-Hydroxymethyl-6-methylpyridine","-","Koerner","charochkina","A5793","-","-","-","5.43","Log unit","5.43","Log unit","n1c(cccc1CO)C","0","","{n=[0], oh=[8]}","n(c(cc1)C)c(c1)CO","n","25.0","?C","","-","JLVBSBMJQUMAMW-UHFFFAOYSA"
"OCCCC1=CC=CC=N1","-","R946172","M2967","-","-","2-(3-hydroxypropyl)pyridine","-","Koerner","charochkina","A5793","-","-","-","5.61","Log unit","5.61","Log unit","n1ccccc1CCCO","0","","{n=[0], oh=[9]}","n(ccc1)c(c1)CCCO","n","25.0","?C","","-","FVZXYJDGVYLMDB-UHFFFAOYSA"
"OCCCC1=CN=CC=C1","-","R946173","M14408","-","-","3-(3-hydroxypropyl)-pyridine","-","Koerner","charochkina","A5793","-","-","-","5.47","Log unit","5.47","Log unit","n1cccc(c1)CCCO","0","","{n=[0], oh=[9]}","n(ccc1)cc1CCCO","n","25.0","?C","","-","ZUGAIMFLQLPTKB-UHFFFAOYSA"
"OCCCC1=CC=NC=C1","-","R946174","M8950","-","-","4-(3-Hydroxypropyl)pyridine","-","Koerner","charochkina","A5793","-","-","-","5.84","Log unit","5.84","Log unit","n1ccc(CCCO)cc1","0","","{n=[0], oh=[7]}","n(ccc1CCCO)cc1","n","25.0","?C","","-","PZVZGDBCMQBRMA-UHFFFAOYSA"
"SC1[NH2+]CCCC1N(=O)=O","-","R946175","M1107284","-","-","2-mercapto-3-nitropyridine","-","Koerner","charochkina","A5793","-","-","-","-2.49","Log unit","-2.49","Log unit","SC1[NH2+][CH][CH][CH]C1N(=O)=O","0","","{sh=[0], nr2=[7]}","S-c([n+1]cc1)c(c1)N(=O)=O","sh","25.0","?C","","-","BWLKPCMURICTRS-UHFFFAOYSA"
"[S-]C1=NC=CC=C1N(=O)=O","-","R946176","M1106767","-","-","2-mercapto-3-nitropyridine","-","Koerner","charochkina","A5793","-","-","-","6.9","Log unit","6.9","Log unit","n1c([S-])c(ccc1)N(=O)=O","2","","{n=[2], nr2=[7]}","[S-1]-c(ncc1)c(c1)N(=O)=O","n","25.0","?C","","-","LKNPLDRVWHXGKZ-UHFFFAOYSA"
"OCC1=C(O)C=CC=N1","-","R946177","M114965","-","-","3-hydroxy-2-hydroxymethylpyridine","-","Koerner","charochkina","A5793","-","-","-","5.0","Log unit","5.0","Log unit","n1cccc(c1CO)O","0","","{n=[0], oh=[6, 8]}","n(ccc1)c(c1O)CO","n","25.0","?C","","-","ZJRBRKUGRKKZOO-UHFFFAOYSA"
"OCC1=CC=NC=C1O","-","R946178","M1106768","-","-","3-hydroxy-4-hydroxymethylpyridine","-","Koerner","charochkina","A5793","-","-","-","5.0","Log unit","5.0","Log unit","n1ccc(CO)c(c1)O","0","","{n=[0], oh=[5, 8]}","n(ccc1CO)cc1O","n","25.0","?C","","-","LJIALYCUOREABY-UHFFFAOYSA"
"CC1=C(O)C(C)=C(CO)C=N1","-","R946179","M17247","-","-","3-hydroxy-5-hydroxymethyl-2,4-dimethylpyridine","-","Koerner","charochkina","A5793","-","-","-","5.4","Log unit","5.4","Log unit","n1cc(c(C)c(c1C)O)CO","0","","{n=[0], oh=[6, 9]}","n(cc(c1C)CO)c(c1O)C","n","25.0","?C","","-","KKOWAYISKWGDBG-UHFFFAOYSA"
"OC1=CC=CC=C1C1=CC=CC=N1","-","R946180","M1106769","-","-","2-(2-hydroxyphenyl)pyridine","-","Koerner","charochkina","A5793","-","-","-","4.19","Log unit","4.19","Log unit","n1ccccc1c1ccccc1O","0","","{n=[0], oh=[11]}","n(ccc1)c(c1)-c(ccc2)c(O)c2","n","25.0","?C","","-","HPDNGBIRSIWOST-UHFFFAOYSA"
"IC1=NC=CC=C1","-","R946181","M110744","-","-","2-Iodopyridine","-","Koerner","charochkina","A5793","-","-","-","1.82","Log unit","1.82","Log unit","n1c(I)cccc1","2","","{n=[2]}","I-c(ncc1)cc1","n","25.0","?C","","-","CCZWSTFVHJPCEM-UHFFFAOYSA"
"IC1=CN=CC=C1","-","R946182","M24632","-","-","3-Iodo-pyridine","-","Koerner","charochkina","A5793","-","-","-","3.25","Log unit","3.25","Log unit","n1cc(I)ccc1","3","","{n=[3]}","I-c(cnc1)cc1","n","25.0","?C","","-","XDELKSRGBLWMBA-UHFFFAOYSA"
"IC1=CC=NC=C1","-","R946183","M749942","-","-","4-iodo-pyridine","-","Koerner","charochkina","A5793","-","-","-","4.02","Log unit","4.02","Log unit","n1ccc(I)cc1","4","","{n=[4]}","I-c(ccn1)cc1","n","25.0","?C","","-","RTLUPHDWSUGAOS-UHFFFAOYSA"
"COC1=NC=C(I)C=C1","-","R946184","M1106770","-","-","5-iodo-2-methoxypyridine","-","Koerner","charochkina","A5793","-","-","-","1.51","Log unit","1.51","Log unit","n1cc(I)ccc1OC","3","","{n=[3]}","I-c(cnc1OC)cc1","n","25.0","?C","","-","NTXRNCUPGYOZCN-UHFFFAOYSA"