Smiles,CASRN,Record ID,Molecule ID,External ID,N,Name,Introducer,Modifer,Article ID,PUBMED ID,PAGE,TABLE,pKa,pKa Unit,Temperature,Temperature Unit,Ionizable center smiles,IC group
OC(=O)C1=CC=C(C=CN(=O)=O)C=C1,-,R936388,M1050400,-,-,4-(2-nitrovinyl)-benzoic acid,Koerner,charochkina,A5793,-,-,-,3.94,Log unit,25,?C,OC(=O)c1ccc(cc1)C=CN(=O)=O,"{co2h=13, aliphatic_carboxylic_acid=13}"
OC(=O)C=CC1=CC(=CC=C1O)N(=O)=O,-,R936389,M1050401,-,-,3-(2-hydroxy-5-nitrophenyl)-propenoic acid,Koerner,charochkina,A5793,-,-,-,3.54,Log unit,25,?C,OC(=O)C=Cc1c(O)ccc(N(=O)=O)c1,"{co2h=14, aliphatic_carboxylic_acid=14}"
CC(OC1=C(Cl)C=C(Cl)C=C1)C(O)=O,-,R936390,M7130,-,-,"2-(2,4-dichlorophenoxy)-propanoic acid",Koerner,charochkina,A5793,-,-,-,2.86,Log unit,25,?C,OC(=O)C(Oc1c(cc(Cl)cc1)Cl)C,"{co2h=10, aliphatic_carboxylic_acid=10}"
OC(=O)CCOC1=C(Cl)C=C(Cl)C=C1,-,R936391,M1050402,-,-,"3-(2,4-dichlorophenoxy)-propanoic acid",Koerner,charochkina,A5793,-,-,-,4.42,Log unit,25,?C,OC(=O)CCOc1c(cc(Cl)cc1)Cl,"{co2h=11, aliphatic_carboxylic_acid=11}"
CC1=CC=C(C=C1)C(O)C(F)(F)F,-,R936392,M1050403,-,-,"2,2,2-trifluoro-1-(p-tolyl)-ethanol",Koerner,charochkina,A5793,-,-,-,12.04,Log unit,25,?C,OC(c1ccc(cc1)C)C(F)(F)F,{oh=5}
OC(=O)CCC1=CC=CC=C1Br,-,R936393,M751441,-,-,3-(2-bromophenyl)-propanoic acid,Koerner,charochkina,A5793,-,-,-,4.58,Log unit,25,?C,OC(=O)CCc1c(Br)cccc1,"{co2h=11, aliphatic_carboxylic_acid=11}"
OC(=O)CCC1=CC=CC=C1F,-,R936394,M751458,-,-,3-(2-fluorophenyl)-propanoic acid,Koerner,charochkina,A5793,-,-,-,4.6,Log unit,25,?C,OC(=O)CCc1c(F)cccc1,"{co2h=11, aliphatic_carboxylic_acid=11}"
OC(=O)CCC1=CC=CC(=C1)N(=O)=O,-,R936395,M1050404,-,-,3-(3-nitrophenyl)-propanoic acid,Koerner,charochkina,A5793,-,-,-,4.53,Log unit,25,?C,OC(=O)CCc1cccc(c1)N(=O)=O,"{co2h=13, aliphatic_carboxylic_acid=13}"
CC1=C(O)C(C(O)=O)=C(C)C(=C1)N(=O)=O,-,R936396,M1050405,-,-,"2-hydroxy-3,6-dimethyl-5-nitro-benozic acid",Koerner,charochkina,A5793,-,-,-,2.78,Log unit,25,?C,OC(=O)c1c(O)c(cc(N(=O)=O)c1C)C,"{co2h=14, aliphatic_carboxylic_acid=14}"
CC1=CC(=CC=C1)S(=O)(=O)CC(O)=O,-,R936397,M1050406,-,-,2-(m-tolyl)sulfonyl-acetic acid,Koerner,charochkina,A5793,-,-,-,2.567,Log unit,25,?C,OC(=O)CS(=O)(=O)c1cccc(c1)C,"{co2h=6, aliphatic_carboxylic_acid=6}"
COC1=CC(=CC=C1)S(=O)(=O)CC(O)=O,-,R936398,M1050407,-,-,2-(3-methoxyphenyl)sulfonyl-acetic acid,Koerner,charochkina,A5793,-,-,-,2.588,Log unit,25,?C,OC(=O)CS(=O)(=O)c1cccc(c1)OC,"{co2h=6, aliphatic_carboxylic_acid=6}"
COC1=CC=C(C=C1)S(=O)(=O)CC(O)=O,-,R936399,M1050408,-,-,2-(4-methoxyphenyl)sulfonyl-acetic acid,Koerner,charochkina,A5793,-,-,-,2.602,Log unit,25,?C,OC(=O)CS(=O)(=O)c1ccc(OC)cc1,"{co2h=6, aliphatic_carboxylic_acid=6}"
CC(C)C(C#N)(C(C)C)C(O)=O,-,R936400,M1018642,-,-,2-cyano-2-isopropyl-3-methyl-butanoic acid,Koerner,charochkina,A5793,-,-,-,2.556,Log unit,25,?C,OC(=O)C(C#N)(C(C)C)C(C)C,"{co2h=2, aliphatic_carboxylic_acid=2}"
OC(=O)C1=CC(CC=C)=CC=C1,-,R936401,M1050409,-,-,3-allyl-benzoic acid,Koerner,charochkina,A5793,-,-,-,4.32,Log unit,25,?C,OC(=O)c1cccc(c1)CC=C,"{co2h=6, aliphatic_carboxylic_acid=6}"
OC(=O)C1=CC=C(CC=C)C=C1,-,R936402,M1050410,-,-,4-allyl-benzoic acid,Koerner,charochkina,A5793,-,-,-,4.34,Log unit,25,?C,OC(=O)c1ccc(cc1)CC=C,"{co2h=11, aliphatic_carboxylic_acid=11}"
CC=CC1=CC(=CC=C1)C(O)=O,-,R936403,M1050411,-,-,3-(1-propenyl)-benzoic acid,Koerner,charochkina,A5793,-,-,-,4.25,Log unit,25,?C,OC(=O)c1cccc(c1)C=CC,"{co2h=11, aliphatic_carboxylic_acid=11}"
CC=CC1=CC=C(C=C1)C(O)=O,-,R936404,M1050412,-,-,4-(1-propenyl)-benzoic acid,Koerner,charochkina,A5793,-,-,-,4.49,Log unit,25,?C,OC(=O)c1ccc(cc1)C=CC,"{co2h=6, aliphatic_carboxylic_acid=6}"
CC1=CC=C(O)C(C=CC(O)=O)=C1,-,R936405,M1050413,-,-,3-(2-hydroxy-5-methylphenyl)-propenoic acid,Koerner,charochkina,A5793,-,-,-,3.74,Log unit,25,?C,OC(=O)C=Cc1c(O)ccc(C)c1,"{co2h=12, aliphatic_carboxylic_acid=12}"
COC1=CC(C=CC(O)=O)=CC=C1O,-,R936406,M21419,-,-,3-(4-hydroxy-3-methoxyphenyl)-propenoic acid,Koerner,charochkina,A5793,-,-,-,4.58,Log unit,25,?C,OC(=O)C=Cc1ccc(O)c(c1)OC,"{co2h=9, aliphatic_carboxylic_acid=9}"
CC1=C(C)C(C)=C(C=C1)C(O)=O,-,R936407,M1050414,-,-,"2,3,4-trimethyl-benzoic acid",Koerner,charochkina,A5793,-,-,-,4.06,Log unit,25,?C,OC(=O)c1ccc(c(c1C)C)C,"{co2h=7, aliphatic_carboxylic_acid=7}"
CC1=CC(C)=C(C)C(=C1)C(O)=O,-,R936408,M1050415,-,-,"2,3,5-trimethyl-benzoic acid",Koerner,charochkina,A5793,-,-,-,4.01,Log unit,25,?C,OC(=O)c1cc(cc(c1C)C)C,"{co2h=6, aliphatic_carboxylic_acid=6}"
CC1=C(C)C(C(O)=O)=C(C)C=C1,-,R936409,M1050416,-,-,"2,3,6-trimethyl-benzoic acid",Koerner,charochkina,A5793,-,-,-,3.34,Log unit,25,?C,OC(=O)c1c(ccc(c1C)C)C,"{co2h=7, aliphatic_carboxylic_acid=7}"
CC1=CC(C)=C(C=C1C)C(O)=O,-,R936410,M21285,-,-,"2,4,5-trimethyl-benzoic acid",Koerner,charochkina,A5793,-,-,-,4.38,Log unit,25,?C,OC(=O)c1c(cc(c(c1)C)C)C,"{co2h=11, aliphatic_carboxylic_acid=11}"
CC1=CC(=CC(C)=C1C)C(O)=O,-,R936411,M1050417,-,-,"3,4,5-trimethyl-benzoic acid",Koerner,charochkina,A5793,-,-,-,4.52,Log unit,25,?C,OC(=O)c1cc(c(c(C)c1)C)C,"{co2h=11, aliphatic_carboxylic_acid=11}"
CC(CC(O)=O)C1=CC=CC=C1,-,R936412,M48968,-,-,3-phenyl-butanoic acid,Koerner,charochkina,A5793,-,-,-,4.4,Log unit,25,?C,OC(=O)CC(c1ccccc1)C,"{co2h=9, aliphatic_carboxylic_acid=9}"
CC1=CC(C)=C(OCC(O)=O)C=C1,-,R936413,M114004,-,-,"2-(2,4-dimethylphenoxy)-acetic acid",Koerner,charochkina,A5793,-,-,-,3.15,Log unit,25,?C,OC(=O)COc1ccc(cc1C)C,"{co2h=9, aliphatic_carboxylic_acid=9}"
CC1=CC(OCC(O)=O)=CC(C)=C1,-,R936414,M30215,-,-,2-(3.5-dimethylphenoxy)-acetic acid,Koerner,charochkina,A5793,-,-,-,3.2,Log unit,25,?C,OC(=O)COc1cc(cc(c1)C)C,"{co2h=8, aliphatic_carboxylic_acid=8}"
CC1=CC(C(O)C(O)=O)=C(C)C=C1,-,R936415,M114986,-,-,"2-(2,5-dimethylphenyl)-2-hydroxy-acetic acid",Koerner,charochkina,A5793,-,-,-,3.57,Log unit,25,?C,OC(=O)C(c1c(ccc(c1)C)C)O,"{co2h=9, aliphatic_carboxylic_acid=9}"
CCOC1=CC=CC(C)=C1C(O)=O,-,R936416,M1050418,-,-,2-ethoxy-6-methyl-benzoic acid,Koerner,charochkina,A5793,-,-,-,3.51,Log unit,25,?C,OC(=O)c1c(cccc1OCC)C,"{co2h=7, aliphatic_carboxylic_acid=7}"
CCOC1=CC(C(O)=O)=C(C)C=C1,-,R936417,M1050419,-,-,5-ethoxy-2-methyl-benzoic acid,Koerner,charochkina,A5793,-,-,-,3.86,Log unit,25,?C,OC(=O)c1c(ccc(c1)OCC)C,"{co2h=12, aliphatic_carboxylic_acid=12}"
CCOC1=CC(C)=C(C=C1)C(O)=O,-,R936418,M1050420,-,-,4-ethoxy-2-methyl-benzoic acid,Koerner,charochkina,A5793,-,-,-,4.54,Log unit,25,?C,OC(=O)c1ccc(cc1C)OCC,"{co2h=7, aliphatic_carboxylic_acid=7}"
CC(C)C1=CC=CC(C(O)=O)=C1O,-,R936419,M196709,-,-,2-hydroxy-3-isopropyl-benzoic acid,Koerner,charochkina,A5793,-,-,-,2.76,Log unit,25,?C,OC(=O)c1cccc(c1O)C(C)C,"{co2h=7, aliphatic_carboxylic_acid=7}"
COC1=CC(=CC(OC)=C1OC)C(O)=O,-,R936420,M10412,-,-,"3,4,5-trimethoxy-benzoic acid",Koerner,charochkina,A5793,-,-,-,4.155,Log unit,25,?C,OC(=O)c1cc(OC)c(OC)c(OC)c1,"{co2h=14, aliphatic_carboxylic_acid=14}"
CCOC(=O)C(CC)(C(C)C)C(O)=O,-,R936421,M1018663,-,-,2-ethoxycarbonyl-2-isopropyl-butanoic acid,Koerner,charochkina,A5793,-,-,-,3.87,Log unit,25,?C,OC(=O)C(C(=O)OCC)(CC)C(C)C,"{co2h=2, aliphatic_carboxylic_acid=2}"
OC(=O)C=CC1=CC(=CC=C1O)C#N,-,R936422,M1050421,-,-,3-(3-cyano-6-hydroxyphenyl)-propenoic acid,Koerner,charochkina,A5793,-,-,-,3.46,Log unit,25,?C,OC(=O)C=Cc1c(O)ccc(C#N)c1,"{co2h=13, aliphatic_carboxylic_acid=13}"
OC(=O)C1=CC(O)=CC2=CC=CC=C12,-,R936423,M1050422,-,-,3-hydroxy-1-naphthoic acid,Koerner,charochkina,A5793,-,-,-,3.69,Log unit,25,?C,OC(=O)c1c2ccccc2cc(c1)O,"{co2h=8, aliphatic_carboxylic_acid=8}"
OC(=O)C1=CC2=CC=CC=C2C=C1O,-,R936424,M18034,-,-,3-Hydroxy-2-naphthoic acid,Koerner,charochkina,A5793,-,-,-,2.75,Log unit,25,?C,OC(=O)c1cc2ccccc2cc1O,"{co2h=8, aliphatic_carboxylic_acid=8}"
OC(=O)C1=CC2=CC=CC=C2C(O)=C1,-,R936425,M1050423,-,-,4-hydroxy-2-naphthoic acid,Koerner,charochkina,A5793,-,-,-,4.25,Log unit,25,?C,OC(=O)c1cc2ccccc2c(c1)O,"{co2h=8, aliphatic_carboxylic_acid=8}"
OC1=CC(=CC2=CC=CC=C12)C([O-])=O,-,R936426,M1050423,-,-,4-hydroxy-2-naphthoic acid,Koerner,charochkina,A5793,-,-,-,9.6,Log unit,25,?C,Oc1c2ccccc2cc(C(=O)[O-])c1,{oh=13}
CC1=C(O)C(C=CC(O)=O)=C(C)C=C1,-,R936427,M1050424,-,-,"3-(2-hydroxy3,6-dimethylphenyl)-propenoic acid",Koerner,charochkina,A5793,-,-,-,3.84,Log unit,25,?C,OC(=O)C=Cc1c(O)c(ccc1C)C,"{co2h=13, aliphatic_carboxylic_acid=13}"
CC1=CC(C)=C(C=CC(O)=O)C(O)=C1,-,R936428,M1050425,-,-,"3-(2-hydroxy-4,6-dimethylphenyl)-propenoic acid",Koerner,charochkina,A5793,-,-,-,3.93,Log unit,25,?C,OC(=O)C=Cc1c(O)cc(cc1C)C,"{co2h=13, aliphatic_carboxylic_acid=13}"
COC1=C(OC)C(C=CC(O)=O)=CC=C1,-,R936429,M1016774,-,-,"3-(2,3-dimethoxyphenyl)-propenoic acid",Koerner,charochkina,A5793,-,-,-,4.37,Log unit,25,?C,OC(=O)C=Cc1cccc(OC)c1OC,"{co2h=14, aliphatic_carboxylic_acid=14}"
COC1=CC(OC)=C(C=CC(O)=O)C=C1,-,R936430,M31593,-,-,"3-(2,4-dimethoxyphenyl)-propenoic acid",Koerner,charochkina,A5793,-,-,-,4.8,Log unit,25,?C,OC(=O)C=Cc1ccc(cc1OC)OC,"{co2h=10, aliphatic_carboxylic_acid=10}"
COC1=C(OC)C=C(C=CC(O)=O)C=C1,-,R936431,M26668,-,-,"3-(3,4-dimethoxyphenyl)-propenoic acid",Koerner,charochkina,A5793,-,-,-,4.53,Log unit,25,?C,OC(=O)C=Cc1ccc(OC)c(c1)OC,"{co2h=8, aliphatic_carboxylic_acid=8}"
COC1=CC(C=CC(O)=O)=CC(OC)=C1,-,R936432,M116852,-,-,"3-(3,5-dimethoxyphenyl)-propenoic acid",Koerner,charochkina,A5793,-,-,-,4.36,Log unit,25,?C,OC(=O)C=Cc1cc(cc(c1)OC)OC,"{co2h=8, aliphatic_carboxylic_acid=8}"
CC1=CC(C)=C(C)C(C(O)=O)=C1C,-,R936433,M27160,-,-,"2,3,5,6-Tetramethyl-benzoic acid",Koerner,charochkina,A5793,-,-,-,3.416,Log unit,25,?C,OC(=O)c1c(c(cc(c1C)C)C)C,"{co2h=7, aliphatic_carboxylic_acid=7}"
CC(CCC(O)=O)C1=CC=CC=C1,-,R936434,M33856,-,-,4-phenyl-pentanoic acid,Koerner,charochkina,A5793,-,-,-,4.7,Log unit,25,?C,OC(=O)CCC(c1ccccc1)C,"{co2h=10, aliphatic_carboxylic_acid=10}"
OC(=O)CCCCC1=CC=CC=C1,-,R936435,M1148,-,-,5-phenyl-pentanoic acid,Koerner,charochkina,A5793,-,-,-,4.88,Log unit,25,?C,OC(=O)CCCCc1ccccc1,"{co2h=10, aliphatic_carboxylic_acid=10}"
CC(C)C1=CC=C(C=C1)C(O)C(O)=O,-,R936436,M29545,-,-,2-hydroxy-2-(4-isopropylphenyl)-acetic acid,Koerner,charochkina,A5793,-,-,-,3.64,Log unit,25,?C,OC(=O)C(c1ccc(cc1)C(C)C)O,"{co2h=8, aliphatic_carboxylic_acid=8}"
OC(=O)C1=CC=C(Cl)C2=C1C=CC=C2,-,R936437,M1050426,-,-,4-chloro-1-naphthoic acid,Koerner,charochkina,A5793,-,-,-,3.36,Log unit,25,?C,OC(=O)c1ccc(Cl)c2ccccc12,"{co2h=7, aliphatic_carboxylic_acid=7}"
OC(=O)C1=CC=C(Br)C2=C1C=CC=C2,-,R936438,M1050427,-,-,4-bromo-1-naphthoic acid,Koerner,charochkina,A5793,-,-,-,3.37,Log unit,25,?C,OC(=O)c1ccc(Br)c2ccccc12,"{co2h=7, aliphatic_carboxylic_acid=7}"
OC(=O)C1=CC=C(F)C2=CC=CC=C12,-,R936439,M66972,-,-,4-fluoro-naphthoic acid,Koerner,charochkina,A5793,-,-,-,3.7,Log unit,25,?C,OC(=O)c1c2ccccc2c(F)cc1,"{co2h=8, aliphatic_carboxylic_acid=8}"
OC(=O)C1=CC(=CC2=CC=CC=C12)N(=O)=O,-,R936440,M1050428,-,-,3-nitro-1-naphthoic acid,Koerner,charochkina,A5793,-,-,-,2.83,Log unit,25,?C,OC(=O)c1c2ccccc2cc(c1)N(=O)=O,"{co2h=8, aliphatic_carboxylic_acid=8}"
OC(=O)C1=CC=C(C2=CC=CC=C12)N(=O)=O,-,R936441,M1050429,-,-,4-nitro-1-naphthoic acid,Koerner,charochkina,A5793,-,-,-,2.8,Log unit,25,?C,OC(=O)c1c2ccccc2c(cc1)N(=O)=O,"{co2h=8, aliphatic_carboxylic_acid=8}"
CC1=CC2=CC=CC=C2C(=C1)C(O)=O,-,R936442,M1050430,-,-,3-methyl-1-naphthoic acid,Koerner,charochkina,A5793,-,-,-,3.72,Log unit,25,?C,OC(=O)c1c2ccccc2cc(c1)C,"{co2h=8, aliphatic_carboxylic_acid=8}"
COC1=CC=C(C(O)=O)C2=CC=CC=C12,-,R936443,M1050431,-,-,4-methoxy-1-naphthoic acid,Koerner,charochkina,A5793,-,-,-,4.31,Log unit,25,?C,OC(=O)c1c2ccccc2c(cc1)OC,"{co2h=8, aliphatic_carboxylic_acid=8}"
COC1=CC2=CC=CC=C2C=C1C(O)=O,-,R936444,M68032,-,-,3-Methoxy-2-naphthoic acid,Koerner,charochkina,A5793,-,-,-,3.8,Log unit,25,?C,OC(=O)c1cc2ccccc2cc1OC,"{co2h=8, aliphatic_carboxylic_acid=8}"
COC(=O)C(C)(CC(O)=O)C1=CC=CC=C1,-,R936445,M1050432,-,-,3-methoxycarbonyl-3-phenyl-butanoic acid,Koerner,charochkina,A5793,-,-,-,4.46,Log unit,25,?C,OC(=O)CC(c1ccccc1)(C(=O)OC)C,"{co2h=13, aliphatic_carboxylic_acid=13}"
CC(CCCC(O)=O)C1=CC=CC=C1,-,R936446,M738950,-,-,5-phenyl-hexanoic acid,Koerner,charochkina,A5793,-,-,-,4.8,Log unit,25,?C,OC(=O)CCCC(c1ccccc1)C,"{co2h=11, aliphatic_carboxylic_acid=11}"
COC(=O)C(C)(CC(O)=O)C1=CC=C(C=C1)N(=O)=O,-,R936447,M1050433,-,-,3-methoxycarbonyl-3-(4-nitrophenyl)-butanoic acid,Koerner,charochkina,A5793,-,-,-,4.27,Log unit,25,?C,OC(=O)CC(c1ccc(cc1)N(=O)=O)(C(=O)OC)C,"{co2h=13, aliphatic_carboxylic_acid=13}"
CCC(CC(O)=O)(C(=O)OC)C1=CC=CC=C1,-,R936448,M1050434,-,-,3-methoxycarbonyl-3-phenyl-pentanoic acid,Koerner,charochkina,A5793,-,-,-,4.46,Log unit,25,?C,OC(=O)CC(c1ccccc1)(C(=O)OC)CC,"{co2h=14, aliphatic_carboxylic_acid=14}"
OC(=O)CCCCCCC1=CC=CC=C1,-,R936449,M38954,-,-,7-phenyl-heptanoic acid,Koerner,charochkina,A5793,-,-,-,5.07,Log unit,25,?C,OC(=O)CCCCCCc1ccccc1,"{co2h=12, aliphatic_carboxylic_acid=12}"
CCC(CC)(C(O)=O)C(CC)(CC)C(=O)OC,-,R936450,M1018688,-,-,"2,2,3-triethyl-3-methoxycarbonyl-pentanoic acid",Koerner,charochkina,A5793,-,-,-,5.34,Log unit,25,?C,OC(=O)C(CC)(CC)C(C(=O)OC)(CC)CC,"{co2h=2, aliphatic_carboxylic_acid=2}"
CCC(CC(O)=O)(C(=O)OC)C1=CC=C(C=C1)N(=O)=O,-,R936451,M1050435,-,-,3-methoxycarbonyl-3-(4-nitrophenyl)-pentanoic acid,Koerner,charochkina,A5793,-,-,-,4.29,Log unit,25,?C,OC(=O)CC(c1ccc(N(=O)=O)cc1)(C(=O)OC)CC,"{co2h=17, aliphatic_carboxylic_acid=17}"
CC1=CC=C(C=C1)C(=O)C1=CC=C(C=C1)C(O)=O,-,R936452,M1050436,-,-,2-(p-tolyuoyl)-benzoic acid,Koerner,charochkina,A5793,-,-,-,3.64,Log unit,25,?C,OC(=O)c1ccc(C(=O)c2ccc(cc2)C)cc1,"{co2h=12, aliphatic_carboxylic_acid=12}"
CO,-,R936453,M8028,-,-,Methanol,Koerner,charochkina,A5793,-,-,-,15.295,Log unit,25,?C,OC,{oh=0}
COO,-,R936454,M27736,-,-,Methyl hydroperoxide,Koerner,charochkina,A5793,-,-,-,11.5,Log unit,25,?C,OOC,{oh=2}
CC(=O)OO,-,R936455,M17554,-,-,PEROXYACETIC ACID,Koerner,charochkina,A5793,-,-,-,8.2,Log unit,25,?C,OOC(=O)C,{oh=3}
CCO,-,R936456,M663936,-,-,Ethanol,Koerner,charochkina,A5793,-,-,-,15.915,Log unit,25,?C,OCC,{oh=0}
CC1=CC=CC(O)=C1C(O)=O,-,R936257,M21820,-,-,2-hydroxy-6-methyl-benzoic acid,Koerner,charochkina,A5793,-,-,-,3.32,Log unit,25,?C,OC(=O)c1c(cccc1C)O,"{co2h=7, aliphatic_carboxylic_acid=7}"
CC1=C(O)C=CC=C1C(O)=O,-,R936258,M1050355,-,-,3-hydroxy-2-methyl-benzoic acid,Koerner,charochkina,A5793,-,-,-,3.83,Log unit,25,?C,OC(=O)c1cccc(O)c1C,"{co2h=10, aliphatic_carboxylic_acid=10}"
CC1=CC=C(C=C1O)C(O)=O,-,R936259,M67026,-,-,3-hydroxy-4-methyl-benzoic acid,Koerner,charochkina,A5793,-,-,-,4.32,Log unit,25,?C,OC(=O)c1cc(O)c(cc1)C,"{co2h=7, aliphatic_carboxylic_acid=7}"
CC1=CC=C(O)C=C1C(O)=O,-,R936260,M1050356,-,-,5-hydroxy-2-methyl-benzoic acid,Koerner,charochkina,A5793,-,-,-,3.92,Log unit,25,?C,OC(=O)c1cc(O)ccc1C,"{co2h=10, aliphatic_carboxylic_acid=10}"
CC1=CC(O)=CC=C1C(O)=O,-,R936261,M66996,-,-,4-hydroxy-2-methyl-benzoic acid,Koerner,charochkina,A5793,-,-,-,4.71,Log unit,25,?C,OC(=O)c1ccc(O)cc1C,"{co2h=7, aliphatic_carboxylic_acid=7}"
CC1=CC(=CC=C1O)C(O)=O,-,R936262,M66608,-,-,4-hydroxy-3-methyl-benzoic acid,Koerner,charochkina,A5793,-,-,-,4.68,Log unit,25,?C,OC(=O)c1ccc(O)c(c1)C,"{co2h=7, aliphatic_carboxylic_acid=7}"
OC(=O)CC1=CC=C(O)C(O)=C1,-,R936263,M18409,-,-,"2-(3,4-dihydroxyphenyl)-acetic acid",Koerner,charochkina,A5793,-,-,-,4.25,Log unit,25,?C,OC(=O)Cc1ccc(O)c(O)c1,"{co2h=8, aliphatic_carboxylic_acid=8}"
OC(=O)COC1=CC=CC=C1O,-,R936264,M6378,-,-,2-(2-hydroxyphenoxy)-acetic acid,Koerner,charochkina,A5793,-,-,-,3.02,Log unit,25,?C,OC(=O)COc1ccccc1O,"{co2h=8, aliphatic_carboxylic_acid=8}"
COC1=CC=C(C(O)=O)C(O)=C1,-,R936265,M70953,-,-,2-hydroxy-4-methoxy-benzoic acid,Koerner,charochkina,A5793,-,-,-,3.31,Log unit,25,?C,OC(=O)c1c(O)cc(cc1)OC,"{co2h=11, aliphatic_carboxylic_acid=11}"
COC1=CC=C(O)C(=C1)C(O)=O,-,R936266,M71593,-,-,2-hydroxy-5-methoxy-benzoic acid,Koerner,charochkina,A5793,-,-,-,2.94,Log unit,25,?C,OC(=O)c1c(O)ccc(OC)c1,"{co2h=11, aliphatic_carboxylic_acid=11}"
COC1=CC=C(C=C1O)C(O)=O,-,R936267,M23141,-,-,3-Hydroxy-4-methoxy-benzoic acid,Koerner,charochkina,A5793,-,-,-,4.47,Log unit,25,?C,OC(=O)c1cc(O)c(cc1)OC,"{co2h=7, aliphatic_carboxylic_acid=7}"
COC1=CC=C(C=C1O)C([O-])=O,-,R936268,M23141,-,-,3-Hydroxy-4-methoxy-benzoic acid,Koerner,charochkina,A5793,-,-,-,10,Log unit,25,?C,Oc1cc(ccc1OC)C(=O)[O-],{oh=0}
COC1=CC(=CC=C1O)C(O)=O,-,R936269,M12372,-,-,4-hydroxy-3-methoxy-benzoic acid,Koerner,charochkina,A5793,-,-,-,4.49,Log unit,25,?C,OC(=O)c1ccc(O)c(c1)OC,"{co2h=7, aliphatic_carboxylic_acid=7}"
COC1=CC(=CC=C1O)C([O-])=O,-,R936270,M12372,-,-,4-hydroxy-3-methoxy-benzoic acid,Koerner,charochkina,A5793,-,-,-,9.4,Log unit,25,?C,Oc1ccc(C(=O)[O-])cc1OC,{oh=0}
OC(=O)C1=C(F)C(F)=C(C(F)=C1F)C(F)(F)F,-,R936271,M1050357,-,-,"2,3,5,6-tetrafluoro-4-trifluoromethyl-benzoic acid",Koerner,charochkina,A5793,-,-,-,1.44,Log unit,25,?C,OC(=O)c1c(F)c(F)c(c(F)c1F)C(F)(F)F,"{co2h=16, aliphatic_carboxylic_acid=16}"
OC(=O)C1=C(C([O-])=O)C(Cl)=C(Cl)C(Cl)=C1Cl,-,R936272,M23006,-,-,"Tetrachloro-1,2-benzenedicarboxylic acid",Koerner,charochkina,A5793,-,-,-,2.64,Log unit,25,?C,OC(=O)c1c(C(=O)[O-])c(c(c(c1Cl)Cl)Cl)Cl,"{co2h=7, aliphatic_carboxylic_acid=7}"
CC1=C(F)C(F)=C(C(O)=O)C(F)=C1F,-,R936273,M23181,-,-,"2,3,5,6-TETRAFLUORO-4-METHYL-BENZOIC ACID",Koerner,charochkina,A5793,-,-,-,2,Log unit,25,?C,OC(=O)c1c(c(F)c(c(F)c1F)C)F,"{co2h=13, aliphatic_carboxylic_acid=13}"
OC(=O)C1=CC(=CC=C1O)C#N,-,R936274,M1050358,-,-,3-cyano-6-hydroxy-benzoic acid,Koerner,charochkina,A5793,-,-,-,2.38,Log unit,25,?C,OC(=O)c1c(O)ccc(C#N)c1,"{co2h=11, aliphatic_carboxylic_acid=11}"
OC(=O)C1=CC=C(C=C1O)C#N,-,R936275,M1050359,-,-,4-cyano-2-hydroxy-benzoic acid,Koerner,charochkina,A5793,-,-,-,2.35,Log unit,25,?C,OC(=O)c1c(O)cc(cc1)C#N,"{co2h=11, aliphatic_carboxylic_acid=11}"
OC(=O)COC1=C(Cl)C=C(Cl)C(Cl)=C1,-,R936276,M10491,-,-,"2,4,5-trichloro-phenoxyacetic acid",Koerner,charochkina,A5793,-,-,-,2.8415,Log unit,25,?C,OC(=O)COc1c(cc(Cl)c(Cl)c1)Cl,"{co2h=10, aliphatic_carboxylic_acid=10}"
OC(=O)C1=C(C(O)=O)C(Cl)=CC=C1,-,R936277,M36924,-,-,"3-chloro-1,2-benzenedicarboxylic acid",Koerner,charochkina,A5793,-,-,-,2,Log unit,25,?C,OC(=O)c1c(c(Cl)ccc1)C(=O)O,"{co2h=9, aliphatic_carboxylic_acid=9}"
OC(=O)C1=C(C([O-])=O)C(Cl)=CC=C1,-,R936278,M36924,-,-,"3-chloro-1,2-benzenedicarboxylic acid",Koerner,charochkina,A5793,-,-,-,4.49,Log unit,25,?C,OC(=O)c1c(c(Cl)ccc1)C(=O)[O-],"{co2h=9, aliphatic_carboxylic_acid=9}"
OC(=O)C1=C(C(O)=O)C(Br)=CC=C1,-,R936279,M1050360,-,-,"3-bromo-1,2-benzenedicarboxylic acid",Koerner,charochkina,A5793,-,-,-,2.27,Log unit,25,?C,OC(=O)c1c(c(Br)ccc1)C(=O)O,"{co2h=9, aliphatic_carboxylic_acid=9}"
OC(=O)C1=C(C([O-])=O)C(Br)=CC=C1,-,R936280,M1050360,-,-,"3-bromo-1,2-benzenedicarboxylic acid",Koerner,charochkina,A5793,-,-,-,4.35,Log unit,25,?C,OC(=O)c1c(c(Br)ccc1)C(=O)[O-],"{co2h=9, aliphatic_carboxylic_acid=9}"
OC(=O)C1=CC=C(Br)C=C1C(O)=O,-,R936281,M78050,-,-,"4-bromo-1,2-benzenedicarboxylic acid",Koerner,charochkina,A5793,-,-,-,2.8,Log unit,25,?C,OC(=O)c1ccc(Br)cc1C(=O)O,"{co2h=7, aliphatic_carboxylic_acid=7}"
OC(=O)C1=CC=C(Br)C=C1C([O-])=O,-,R936282,M78050,-,-,"4-bromo-1,2-benzenedicarboxylic acid",Koerner,charochkina,A5793,-,-,-,4.6,Log unit,25,?C,OC(=O)c1ccc(Br)cc1C(=O)[O-],"{co2h=7, aliphatic_carboxylic_acid=7}"
OC(=O)COC1=C(Cl)C=C(Cl)C=C1,-,R936283,M8292,-,-,"2,4-dichloro-phenoxyacetic acid",Koerner,charochkina,A5793,-,-,-,2.878,Log unit,25,?C,OC(=O)COc1c(cc(Cl)cc1)Cl,"{co2h=10, aliphatic_carboxylic_acid=10}"
OC(=O)COC1=CC(Cl)=CC=C1Cl,-,R936284,M67007,-,-,"2,5-dichloro-phenoxyacetic acid'.",Koerner,charochkina,A5793,-,-,-,2.94,Log unit,25,?C,OC(=O)COc1cc(Cl)ccc1Cl,"{co2h=12, aliphatic_carboxylic_acid=12}"
OC(=O)COC1=C(Cl)C=CC=C1Cl,-,R936285,M66989,-,-,"2,6-dichloro-phenoxyacetic acid",Koerner,charochkina,A5793,-,-,-,3.3,Log unit,25,?C,OC(=O)COc1c(Cl)cccc1Cl,"{co2h=12, aliphatic_carboxylic_acid=12}"
OC(=O)COC1=CC=C(Cl)C(Cl)=C1,-,R936286,M10517,-,-,"3,4-dichloro-phenoxyacetic acid",Koerner,charochkina,A5793,-,-,-,2.92,Log unit,25,?C,OC(=O)COc1ccc(Cl)c(Cl)c1,"{co2h=9, aliphatic_carboxylic_acid=9}"
CC1=C(Cl)C(=CC=C1)C(O)=O,-,R936287,M1050361,-,-,2-chloro-3-methyl-benzoic acid,Koerner,charochkina,A5793,-,-,-,3,Log unit,25,?C,OC(=O)c1c(Cl)c(ccc1)C,"{co2h=10, aliphatic_carboxylic_acid=10}"