"SMILES","CASRN","RECORDID","MOLECULEID","EXTERNALID","N","NAME","NAME","INTRODUCER","MODIFIER","ARTICLEID","PUBMEDID","PAGE","TABLE","pKa (smiles as ob. cond.) {measured}","UNIT {pKa (smiles as ob. cond.)}","pKa (smiles as ob. cond.) {measured, converted}","UNIT {pKa (smiles as ob. cond.)}","Ionizable centre (smiles)","IC group detected","AtomNR of IC","groupsAndICs","IC smiles given","IC group given","Temperature","UNIT {Temperature}","MultiGroupDetection","COMMENTS","INCHI_KEY"
"NC1=CC=CC([NH3+])=C1","-","R945163","M18660","-","-","3-amino-aniline","-","Koerner","charochkina","A5793","-","-","-","2.7","Log unit","2.7","Log unit","Nc1cccc(c1)[NH2+]","7","","{nr2=[7]}","c(cc(c1)[N+1])cc1N","nr2","25.0","?C","","-","WZCQRUWWHSTZEM-UHFFFAOYSA"
"NC1=CC=C(N)C=C1","-","R945164","M1209","-","-","4-amino-aniline","-","Koerner","charochkina","A5793","-","-","-","6.03","Log unit","6.03","Log unit","Nc1ccc(cc1)N","4","","{nr2=[4, 7]}","c(cc(c1)N)c(c1)N","nr2","25.0","?C","true","-","CBCKQZAAMUWICA-UHFFFAOYSA"
"NC1=CC=C([NH3+])C=C1","-","R945165","M1209","-","-","4-amino-aniline","-","Koerner","charochkina","A5793","-","-","-","3.41","Log unit","3.41","Log unit","Nc1ccc(cc1)[NH2+]","7","","{nr2=[7]}","c(cc(c1)[N+1])c(c1)N","nr2","25.0","?C","","-","CBCKQZAAMUWICA-UHFFFAOYSA"
"NC1=CC=C(C=C1)C(=O)C1=CC=C(N)C=C1","-","R945166","M111212","-","-","4-(p-aminobenzoyl)-aniline","-","Koerner","charochkina","A5793","-","-","-","2.932","Log unit","2.932","Log unit","Nc1ccc(C(=O)c2ccc(cc2)N)cc1","10","","{nr2=[10, 15]}","c(cc(c1)C(=O)-c(ccc2N)cc2)c(c1)N","nr2","25.0","?C","true","-","ZLSMCQSGRWNEGX-UHFFFAOYSA"
"NC1=CC=C(C=C1)C(=O)C1=CC=C([NH3+])C=C1","-","R945167","M111212","-","-","4-(p-aminobenzoyl)-aniline","-","Koerner","charochkina","A5793","-","-","-","1.4","Log unit","1.4","Log unit","Nc1ccc(cc1)C(=O)c1ccc([NH2+])cc1","15","","{nr2=[15]}","c(cc(c1)C(=O)-c(ccc2[N+1])cc2)c(c1)N","nr2","25.0","?C","","-","ZLSMCQSGRWNEGX-UHFFFAOYSA"
"NC1=CC=C(O)C(N)=C1[O-]","-","R945168","M1107050","-","-","3-amino-2,6-dihydroxy-aniline","-","Koerner","charochkina","A5793","-","-","-","11.5","Log unit","11.5","Log unit","Oc1ccc(c(c1N)[O-])N","9","","{nr2=[1, 5], oh=[9]}","c1(N)c([O-1])c(N)ccc1O","oh","25.0","?C","","-","RWAOPZVGICHCOI-UHFFFAOYSA"
"NC1=CC(N)=C(O)C=C1O","-","R945169","M109321","-","-","3-amino-4,6-dihydroxy-aniline","-","Koerner","charochkina","A5793","-","-","-","5.7","Log unit","5.7","Log unit","Nc1c(cc(O)c(c1)N)O","6","","{nr2=[6, 9], oh=[0, 4]}","O-c(cc(O)c1N)c(c1)N","nr2","25.0","?C","true","-","DPYROBMRMXHROQ-UHFFFAOYSA"
"NC1=CC(N)=C([O-])C=C1O","-","R945170","M109321","-","-","3-amino-4,6-dihydroxy-aniline","-","Koerner","charochkina","A5793","-","-","-","11.7","Log unit","11.7","Log unit","Oc1cc([O-])c(N)cc1N","0","","{nr2=[6, 9], oh=[0]}","O-c(cc([O-1])c1N)c(c1)N","oh","25.0","?C","","-","DPYROBMRMXHROQ-UHFFFAOYSA"
"NC1=CC(N)=C(O)C=C1O","-","R945171","M109321","-","-","3-amino-4,6-dihydroxy-aniline","-","Koerner","charochkina","A5793","-","-","-","10.1","Log unit","10.1","Log unit","Oc1cc(O)c(N)cc1N","0","","{nr2=[6, 9], oh=[0, 4]}","O-c(cc(O)c1N)c(c1)N","oh","25.0","?C","true","-","DPYROBMRMXHROQ-UHFFFAOYSA"
"NC1=CC=CC(N)=C1O","-","R945172","M1107051","-","-","3-amino-2-hydroxyaniline","-","Koerner","charochkina","A5793","-","-","-","5.2","Log unit","5.2","Log unit","Nc1cccc(c1O)N","3","","{nr2=[3, 8], oh=[5]}","c(cc(N)c1O)cc1N","nr2","25.0","?C","true","-","XBQYRNRIHZDZPK-UHFFFAOYSA"
"NC1=C(O)C([NH3+])=CC=C1","-","R945173","M1107051","-","-","3-amino-2-hydroxyaniline","-","Koerner","charochkina","A5793","-","-","-","3.0","Log unit","3.0","Log unit","Nc1cccc(c1O)[NH2+]","3","","{nr2=[3], oh=[5]}","c(cc(N)c1O)cc1[N+1]","nr2","25.0","?C","","-","XBQYRNRIHZDZPK-UHFFFAOYSA"
"NC1=C(O)C=CC([NH3+])=C1","-","R945174","M12963","-","-","3-amino-4-hydroxy-aniline","-","Koerner","charochkina","A5793","-","-","-","3.1","Log unit","3.1","Log unit","Nc1c(ccc(c1)[NH2+])O","5","","{nr2=[5], oh=[3]}","c(cc(O)c1N)c(c1)[N+1]","nr2","25.0","?C","","-","XIWMTQIUUWJNRP-UHFFFAOYSA"
"NC1=CC(N)=C(O)C=C1","-","R945175","M12963","-","-","3-amino-4-hydroxy-aniline","-","Koerner","charochkina","A5793","-","-","-","10.5","Log unit","10.5","Log unit","Oc1ccc(cc1N)N","3","","{nr2=[5, 8], oh=[3]}","c(cc(O)c1N)c(c1)N","oh","25.0","?C","","-","XIWMTQIUUWJNRP-UHFFFAOYSA"
"NC1=CC=C(C=C1)S(=O)(=O)C1=CC=C(N)C=C1","-","R945176","M6950","-","-","4-(4-amino)phenylsulphonylaniline","-","Koerner","charochkina","A5793","-","-","-","2.2","Log unit","2.2","Log unit","Nc1ccc(cc1)S(=O)(=O)c1ccc(N)cc1","4","","{nr2=[4, 14]}","c(cc(c1)N)c(c1)S(=O)(=O)c(ccc2N)cc2","nr2","25.0","?C","true","-","MQJKPEGWNLWLTK-UHFFFAOYSA"
"NC1=CC=C(C=C1)S(=O)(=O)C1=CC=C([NH3+])C=C1","-","R945177","M6950","-","-","4-(4-amino)phenylsulphonylaniline","-","Koerner","charochkina","A5793","-","-","-","1.6","Log unit","1.6","Log unit","Nc1ccc(S(=O)(=O)c2ccc(cc2)[NH2+])cc1","14","","{nr2=[14]}","c(cc(c1)[N+1])c(c1)S(=O)(=O)c(ccc2N)cc2","nr2","25.0","?C","","-","MQJKPEGWNLWLTK-UHFFFAOYSA"
"NC1=CC=C(C=C1)S([O-])(=O)=O","-","R945178","M19094","-","-","1-amino-4-sulphoaniline","-","Koerner","charochkina","A5793","-","-","-","3.29","Log unit","3.29","Log unit","Nc1ccc(S(=O)(=O)[O-])cc1","8","","{nr2=[8]}","S(=O)(=O)([O-1])-c(ccc1N)cc1","nr2","25.0","?C","","-","HVBSAKJJOYLTQU-UHFFFAOYSA"
"NC1=CC(=CC=C1)S([O-])(=O)=O","-","R945179","M19090","-","-","1-amino-3-sulphoaniline","-","Koerner","charochkina","A5793","-","-","-","3.744","Log unit","3.744","Log unit","Nc1cc(S(=O)(=O)[O-])ccc1","10","","{nr2=[10]}","S(=O)(=O)([O-1])c(ccc1)cc1N","nr2","25.0","?C","","-","ZAJAQTYSTDTMCU-UHFFFAOYSA"
"NC1=CC=C(CC2=CC=CC=C2)C=C1","-","R945180","M751386","-","-","4-Benzylaniline","-","Koerner","charochkina","A5793","-","-","-","4.78","Log unit","4.78","Log unit","Nc1ccc(Cc2ccccc2)cc1","9","","{nr2=[9]}","c(ccc1C-c(ccc2N)cc2)cc1","nr2","25.0","?C","","-","WDTRNCFZFQIWLM-UHFFFAOYSA"
"NC1=CC=C(C=C1)C(=O)C1=CC=CC=C1","-","R945181","M9596","-","-","4-benzoyl-aniline","-","Koerner","charochkina","A5793","-","-","-","2.205","Log unit","2.205","Log unit","Nc1ccc(C(=O)c2ccccc2)cc1","10","","{nr2=[10]}","c(ccc1C(=O)-c(ccc2N)cc2)cc1","nr2","25.0","?C","","-","RBKHNGHPZZZJCI-UHFFFAOYSA"
"OC1=CC=C(NCC2=CC=CC=C2)C=C1","-","R945182","M18444","-","-","N-benzyl-4-hydroxyaniline","-","Koerner","charochkina","A5793","-","-","-","5.1","Log unit","5.1","Log unit","N(Cc1ccccc1)c1ccc(O)cc1","5","","{nr2=[5], oh=[10]}","c(ccc1CN-c(ccc2O)cc2)cc1","nr2","25.0","?C","","-","SRYYOKKLTBRLHT-UHFFFAOYSA"
"NC1=CC=CC=C1Br","-","R945183","M339","-","-","2-bromo-aniline","-","Koerner","charochkina","A5793","-","-","-","2.55","Log unit","2.55","Log unit","Nc1c(Br)cccc1","7","","{nr2=[7]}","Br-c(ccc1)c(c1)N","nr2","25.0","?C","","-","AOPBDRUWRLBSDB-UHFFFAOYSA"
"NC1=CC(Br)=CC=C1","-","R945184","M1970","-","-","3-bromo-aniline","-","Koerner","charochkina","A5793","-","-","-","3.59","Log unit","3.59","Log unit","Nc1cc(Br)ccc1","7","","{nr2=[7]}","Br-c(ccc1)cc1N","nr2","25.0","?C","","-","DHYHYLGCQVVLOQ-UHFFFAOYSA"
"NC1=CC=C(Br)C=C1","-","R945185","M12166","-","-","4-Bromo-aniline","-","Koerner","charochkina","A5793","-","-","-","3.905","Log unit","3.905","Log unit","Nc1ccc(Br)cc1","5","","{nr2=[5]}","Br-c(ccc1N)cc1","nr2","25.0","?C","","-","WDFQBORIUYODSI-UHFFFAOYSA"
"CN(C)C1=CC=C(Br)C=C1","-","R945186","M21969","-","-","4-Bromo-N,N-dimethylaniline","-","Koerner","charochkina","A5793","-","-","-","4.257","Log unit","4.257","Log unit","N(c1ccc(Br)cc1)(C)C","5","","{nr2=[5]}","Br-c(ccc1N(C)C)cc1","nr2","25.0","?C","","-","XYZWMVYYUIMRIZ-UHFFFAOYSA"
"CC1=CC(Br)=CC(C)=C1N","-","R945187","M81659","-","-","4-bromo-2,6-dimethyl-aniline","-","Koerner","charochkina","A5793","-","-","-","3.54","Log unit","3.54","Log unit","Nc1c(cc(Br)cc1C)C","5","","{nr2=[5]}","Br-c(cc(c1N)C)cc1C","nr2","25.0","?C","","-","QGLAYJCJLHNIGJ-UHFFFAOYSA"
"COC1=CC=C(N)C=C1Br","-","R945188","M1107052","-","-","3-bromo-4-methoxy-aniline","-","Koerner","charochkina","A5793","-","-","-","4.085","Log unit","4.085","Log unit","Nc1cc(Br)c(cc1)OC","5","","{nr2=[5]}","Br-c(cc(c1)N)c(c1)OC","nr2","25.0","?C","","-","NMUFTXMBONJQTC-UHFFFAOYSA"
"CC1=CC=C(N)C=C1Br","-","R945189","M32179","-","-","3-bromo-4-methyl-aniline","-","Koerner","charochkina","A5793","-","-","-","4.01","Log unit","4.01","Log unit","Nc1cc(Br)c(cc1)C","5","","{nr2=[5]}","Br-c(cc(c1)N)c(c1)C","nr2","25.0","?C","","-","GRXMMIBZRMKADT-UHFFFAOYSA"
"CC1=CC(Br)=CC=C1N","-","R945190","M21933","-","-","4-bromo-2-methyl-aniline","-","Koerner","charochkina","A5793","-","-","-","3.58","Log unit","3.58","Log unit","Nc1ccc(Br)cc1C","5","","{nr2=[5]}","Br-c(ccc1N)cc1C","nr2","25.0","?C","","-","PCHYYOCUCGCSBU-UHFFFAOYSA"
"CN(C)C1=C(C)C=C(Br)C=C1C","-","R945191","M1107053","-","-","4-bromo-n,n,2,6-tetramethyl-aniline","-","Koerner","charochkina","A5793","-","-","-","4.36","Log unit","4.36","Log unit","N(c1c(cc(Br)cc1C)C)(C)C","6","","{nr2=[6]}","Br-c(cc(C)c1N(C)C)cc1C","nr2","25.0","?C","","-","NDDKEDQKCHIHMI-UHFFFAOYSA"
"CC1=CC(N)=CC=C1Br","-","R945192","M31536","-","-","4-BROMO-3-METHYLANILINE","-","Koerner","charochkina","A5793","-","-","-","4.05","Log unit","4.05","Log unit","Nc1ccc(Br)c(c1)C","5","","{nr2=[5]}","Br-c(ccc1N)c(c1)C","nr2","25.0","?C","","-","MMEGELSFOYDPQW-UHFFFAOYSA"
"NC1=CC(=CC=C1Br)N(=O)=O","-","R945193","M32526","-","-","2-Bromo-5-nitroaniline","-","Koerner","charochkina","A5793","-","-","-","0.52","Log unit","0.52","Log unit","N(=O)(=O)c1ccc(Br)c(c1)N","5","","{nr2=[5, 10]}","Br-c(ccc1N(=O)=O)c(c1)N","nr2","25.0","?C","true","-","BAAUCXCLMDAZEL-UHFFFAOYSA"
"NC1=C(C=C(Br)C=C1)N(=O)=O","-","R945194","M23889","-","-","4-Bromo-2-nitroaniline","-","Koerner","charochkina","A5793","-","-","-","-1.075","Log unit","-1.075","Log unit","Nc1c(N(=O)=O)cc(Br)cc1","1","","{nr2=[1, 3]}","c1(N)c(N(=O)=O)cc(Br)cc1","nr2","25.0","?C","true","-","ZCWBZRBJSPWUPG-UHFFFAOYSA"
"NC1=CC=C(Br)C(=C1)N(=O)=O","-","R945195","M110871","-","-","4-Bromo-3-nitroaniline","-","Koerner","charochkina","A5793","-","-","-","1.8","Log unit","1.8","Log unit","Nc1ccc(Br)c(c1)N(=O)=O","5","","{nr2=[5, 8]}","Br-c(ccc1N)c(c1)N(=O)=O","nr2","25.0","?C","true","-","PITHQPMZWKZGRZ-UHFFFAOYSA"
"NC1=CC(Br)=CC=C1N(=O)=O","-","R945196","M1107054","-","-","5-bromo-2-nitroaniline","-","Koerner","charochkina","A5793","-","-","-","-1.48","Log unit","-1.48","Log unit","N(=O)(=O)c1ccc(Br)cc1N","5","","{nr2=[5, 10]}","Br-c(ccc1N(=O)=O)cc1N","nr2","25.0","?C","true","-","RMIFLIVHJLREFJ-UHFFFAOYSA"
"NC1=C(C(Br)=C(C=C1N(=O)=O)N(=O)=O)N(=O)=O","-","R945197","M1107055","-","-","3-bromo-2,4,6-trinitroaniline","-","Koerner","charochkina","A5793","-","-","-","-9.58","Log unit","-9.58","Log unit","N(=O)(=O)c1cc(c(Br)c(c1N)N(=O)=O)N(=O)=O","5","","{nr2=[5, 8, 13, 14]}","Br-c(c(cc1N(=O)=O)N(=O)=O)c(c1N)N(=O)=O","nr2","25.0","?C","true","-","DJXOPGXKCDRBRZ-UHFFFAOYSA"
"CCCCOC1=CC(=C(N)C=C1)N(=O)=O","-","R945198","M747937","-","-","4-Butoxy-2-nitroaniline","-","Koerner","charochkina","A5793","-","-","-","0.74","Log unit","0.74","Log unit","Nc1ccc(cc1N(=O)=O)OCCCC","10","","{nr2=[10, 12]}","c(cc(c1)OCCCC)c(N)c1N(=O)=O","nr2","25.0","?C","true","-","BBELMWNCSCNWAO-UHFFFAOYSA"
"CCCCOC(=O)C1=CC=C(N)C=C1","-","R945199","M4709","-","-","4-butoxycarbonyl-aniline","-","Koerner","charochkina","A5793","-","-","-","2.472","Log unit","2.472","Log unit","Nc1ccc(cc1)C(=O)OCCCC","13","","{nr2=[13]}","c(cc(c1)C(=O)OCCCC)c(c1)N","nr2","25.0","?C","","-","IUWVALYLNVXWKX-UHFFFAOYSA"
"CCCCNC1=CC=CC=C1","-","R945200","M24685","-","-","N-n-butylaniline","-","Koerner","charochkina","A5793","-","-","-","5.035","Log unit","5.035","Log unit","N(c1ccccc1)CCCC","4","","{nr2=[4]}","c(ccc1NCCCC)cc1","nr2","25.0","?C","","-","VSHTWPWTCXQLQN-UHFFFAOYSA"
"CCCCC1=CC=CC=C1N","-","R945201","M71721","-","-","2-n-butyl-aniline","-","Koerner","charochkina","A5793","-","-","-","4.26","Log unit","4.26","Log unit","Nc1ccccc1CCCC","10","","{nr2=[10]}","c(ccc1CCCC)cc1N","nr2","25.0","?C","","-","HDVUPIFFKAHPJY-UHFFFAOYSA"
"CC(C)(C)C1=CC=CC=C1N","-","R945202","M31121","-","-","2-t-butyl-aniline","-","Koerner","charochkina","A5793","-","-","-","4.405","Log unit","4.405","Log unit","Nc1ccccc1C(C)(C)C","10","","{nr2=[10]}","c(ccc1C(C)(C)C)cc1N","nr2","25.0","?C","","-","AEIOZWYBDBVCGW-UHFFFAOYSA"
"CC(C)(C)C1=CC=CC(N)=C1","-","R945203","M75317","-","-","3-t-butyl-aniline","-","Koerner","charochkina","A5793","-","-","-","4.66","Log unit","4.66","Log unit","Nc1cccc(C(C)(C)C)c1","10","","{nr2=[10]}","c(ccc1C(C)(C)C)c(c1)N","nr2","25.0","?C","","-","DPKTVUKEPNBABS-UHFFFAOYSA"
"CC(C)(C)C1=CC=C(N)C=C1","-","R945204","M12541","-","-","4-t-butyl-aniline","-","Koerner","charochkina","A5793","-","-","-","4.95","Log unit","4.95","Log unit","Nc1ccc(cc1)C(C)(C)C","10","","{nr2=[10]}","c(cc(c1)C(C)(C)C)c(c1)N","nr2","25.0","?C","","-","WRDWWAVNELMWAM-UHFFFAOYSA"
"CCC(C)N(C)C1=CC=CC=C1","-","R945205","M1107056","-","-","N-s-butyl-N-methylaniline","-","Koerner","charochkina","A5793","-","-","-","6.03","Log unit","6.03","Log unit","N(c1ccccc1)(C)C(C)CC","4","","{nr2=[4]}","c(ccc1N(C)C(C)CC)cc1","nr2","25.0","?C","","-","REFGXLSOFBWGAQ-UHFFFAOYSA"
"CN(C1=CC=CC=C1)C(C)(C)C","-","R945206","M1107057","-","-","N-t-butyl-N-methylaniline","-","Koerner","charochkina","A5793","-","-","-","7.39","Log unit","7.39","Log unit","N(c1ccccc1)(C)C(C)(C)C","4","","{nr2=[4]}","c(ccc1N(C)C(C)(C)C)cc1","nr2","25.0","?C","","-","WIZSMOISUQQDDU-UHFFFAOYSA"
"CC1=CC=CC=C1NC(C)(C)C","-","R945207","M1107058","-","-","N-t-butyl-2-methylaniline","-","Koerner","charochkina","A5793","-","-","-","6.49","Log unit","6.49","Log unit","N(c1ccccc1C)C(C)(C)C","4","","{nr2=[4]}","c(ccc1NC(C)(C)C)cc1C","nr2","25.0","?C","","-","WXKZVDJCDSIHKG-UHFFFAOYSA"
"NC1=CC=CC=C1Cl","-","R945208","M213","-","-","2-CHLORO-ANILINE","-","Koerner","charochkina","A5793","-","-","-","2.64","Log unit","2.64","Log unit","Nc1c(Cl)cccc1","7","","{nr2=[7]}","Cl-c(ccc1)c(c1)N","nr2","25.0","?C","","-","AKCRQHGQIJBRMN-UHFFFAOYSA"
"NC1=CC(Cl)=CC=C1","-","R945209","M8696","-","-","3-CHLORO-ANILINE","-","Koerner","charochkina","A5793","-","-","-","3.635","Log unit","3.635","Log unit","Nc1cc(Cl)ccc1","7","","{nr2=[7]}","Cl-c(ccc1)cc1N","nr2","25.0","?C","","-","PNPCRKVUWYDDST-UHFFFAOYSA"
"NC1=CC=C(Cl)C=C1","-","R945210","M9410","-","-","4-CHLORO-ANILINE","-","Koerner","charochkina","A5793","-","-","-","4.07","Log unit","4.07","Log unit","Nc1ccc(Cl)cc1","5","","{nr2=[5]}","Cl-c(ccc1N)cc1","nr2","25.0","?C","","-","QSNSCYSYFYORTR-UHFFFAOYSA"
"CN(C)C1=CC(Cl)=CC=C1","-","R945211","M77890","-","-","3-Chloro-N,N-dimethylaniline","-","Koerner","charochkina","A5793","-","-","-","3.837","Log unit","3.837","Log unit","N(c1cc(Cl)ccc1)(C)C","7","","{nr2=[7]}","Cl-c(ccc1)cc1N(C)C","nr2","25.0","?C","","-","CHHCCYVOJBBCIY-UHFFFAOYSA"
"CN(C)C1=CC=C(Cl)C=C1","-","R945212","M23361","-","-","4-Chloro-N,N-dimethylaniline","-","Koerner","charochkina","A5793","-","-","-","4.395","Log unit","4.395","Log unit","N(c1ccc(Cl)cc1)(C)C","5","","{nr2=[5]}","Cl-c(ccc1N(C)C)cc1","nr2","25.0","?C","","-","IONGEXNDPXANJD-UHFFFAOYSA"
"NC1=C(C=C(Cl)C=C1N(=O)=O)N(=O)=O","-","R945213","M1456","-","-","4-chloro-2,6-dinitroaniline","-","Koerner","charochkina","A5793","-","-","-","-6.12","Log unit","-6.12","Log unit","Nc1c(cc(Cl)cc1N(=O)=O)N(=O)=O","5","","{nr2=[5, 6, 11]}","Cl-c(cc(c1N)N(=O)=O)cc1N(=O)=O","nr2","25.0","?C","true","-","CLMQUEQFVUMDPC-UHFFFAOYSA"
"NC1=CC=C(F)C(Cl)=C1","-","R945214","M20216","-","-","3-CHLORO-4-FLUOROANILINE","-","Koerner","charochkina","A5793","-","-","-","3.66","Log unit","3.66","Log unit","Nc1cc(Cl)c(F)cc1","5","","{nr2=[5]}","Cl-c(cc(c1)N)c(F)c1","nr2","25.0","?C","","-","YSEMCVGMNUUNRK-UHFFFAOYSA"
"COC1=CC=C(Cl)C=C1N","-","R945215","M65173","-","-","5-Chloro-2-methoxyaniline","-","Koerner","charochkina","A5793","-","-","-","3.56","Log unit","3.56","Log unit","Nc1cc(Cl)ccc1OC","9","","{nr2=[9]}","Cl-c(ccc1OC)cc1N","nr2","25.0","?C","","-","WBSMIPLNPSCJFS-UHFFFAOYSA"
"CC1=CC(Cl)=CC=C1N","-","R945216","M1730","-","-","4-Chloro-2-methylaniline","-","Koerner","charochkina","A5793","-","-","-","3.848","Log unit","3.848","Log unit","Nc1ccc(Cl)cc1C","5","","{nr2=[5]}","Cl-c(ccc1N)cc1C","nr2","25.0","?C","","-","CXNVOWPRHWWCQR-UHFFFAOYSA"
"NC1=CC=C(C=C1Cl)N(=O)=O","-","R945217","M6316","-","-","2-Chloro-4-nitroaniline","-","Koerner","charochkina","A5793","-","-","-","-0.94","Log unit","-0.94","Log unit","N(=O)(=O)c1cc(Cl)c(cc1)N","5","","{nr2=[5, 10]}","Cl-c(cc(c1)N(=O)=O)c(c1)N","nr2","25.0","?C","true","-","LOCWBQIWHWIRGN-UHFFFAOYSA"
"NC1=CC(=CC=C1Cl)N(=O)=O","-","R945218","M5932","-","-","2-chloro-5-nitroaniline","-","Koerner","charochkina","A5793","-","-","-","0.64","Log unit","0.64","Log unit","N(=O)(=O)c1ccc(Cl)c(c1)N","5","","{nr2=[5, 10]}","Cl-c(ccc1N(=O)=O)c(c1)N","nr2","25.0","?C","true","-","KWIXNFOTNVKIGM-UHFFFAOYSA"
"NC1=C(C=CC=C1Cl)N(=O)=O","-","R945219","M67700","-","-","2-Chloro-6-nitroaniline","-","Koerner","charochkina","A5793","-","-","-","-2.365","Log unit","-2.365","Log unit","Nc1c(Cl)cccc1N(=O)=O","6","","{nr2=[6, 8]}","Cl-c(ccc1)c(N)c1N(=O)=O","nr2","25.0","?C","true","-","VOTXWUCYIOPNNR-UHFFFAOYSA"
"NC1=CC=C(C(Cl)=C1)N(=O)=O","-","R945220","M1107059","-","-","3-chloro-4-nitroaniline","-","Koerner","charochkina","A5793","-","-","-","0.26","Log unit","0.26","Log unit","Nc1cc(Cl)c(cc1)N(=O)=O","5","","{nr2=[5, 8]}","Cl-c(cc(c1)N)c(c1)N(=O)=O","nr2","25.0","?C","true","-","LDSIOPGMLLPSSR-UHFFFAOYSA"
"NC1=C(C(Cl)=C(C=C1N(=O)=O)N(=O)=O)N(=O)=O","-","R945221","M1107060","-","-","3-chloro-2,4,6-trinitroaniline","-","Koerner","charochkina","A5793","-","-","-","-9.7","Log unit","-9.7","Log unit","N(=O)(=O)c1cc(c(Cl)c(c1N)N(=O)=O)N(=O)=O","5","","{nr2=[5, 8, 13, 14]}","Cl-c(c(cc1N(=O)=O)N(=O)=O)c(c1N)N(=O)=O","nr2","25.0","?C","true","-","ALTMJGKXOCGTFZ-UHFFFAOYSA"
"COC1=CC(Cl)=CC(N)=C1","-","R945222","M80088","-","-","3-chloro-5-methoxy-aniline","-","Koerner","charochkina","A5793","-","-","-","3.1","Log unit","3.1","Log unit","Nc1cc(Cl)cc(c1)OC","5","","{nr2=[5]}","Cl-c(cc(c1)N)cc1OC","nr2","25.0","?C","","-","XLAVBRTYEPFKSD-UHFFFAOYSA"
"CNC1=CC=C(Cl)C=C1","-","R945223","M24093","-","-","4-chloro-n-methyl-aniline","-","Koerner","charochkina","A5793","-","-","-","3.9","Log unit","3.9","Log unit","N(c1ccc(Cl)cc1)C","5","","{nr2=[5]}","Cl-c(ccc1NC)cc1","nr2","25.0","?C","","-","XCEYKKJMLOFDSS-UHFFFAOYSA"
"CC1=CC=C(N)C=C1Cl","-","R945224","M9956","-","-","3-chloro-4-methyl-aniline","-","Koerner","charochkina","A5793","-","-","-","4.05","Log unit","4.05","Log unit","Nc1cc(Cl)c(cc1)C","5","","{nr2=[5]}","Cl-c(cc(c1)N)c(c1)C","nr2","25.0","?C","","-","RQKFYFNZSHWXAW-UHFFFAOYSA"
"C=CCNCC=C","-","R945025","M2392","-","-","1-allylaminoprop-2-ene","-","Koerner","charochkina","A5793","-","-","-","9.29","Log unit","9.29","Log unit","N(CC=C)CC=C","0","","{nr2=[0]}","N(CC=C)CC=C","nr2","25.0","?C","","-","DYUWTXWIYMHBQS-UHFFFAOYSA"
"NCC=C","-","R945026","M12013","-","-","1-amino-prop-2-ene","-","Koerner","charochkina","A5793","-","-","-","9.51","Log unit","9.51","Log unit","NCC=C","0","","{nr2=[0]}","NCC=C","nr2","25.0","?C","","-","VVJKKWFAADXIJK-UHFFFAOYSA"
"CC(O)CN(CC=C)CC(C)O","-","R945027","M1107007","-","-","1-(bis-2-hydroxypropyl)aminoprop-2-ene","-","Koerner","charochkina","A5793","-","-","-","8.2","Log unit","8.2","Log unit","N(CC(O)C)(CC=C)CC(O)C","4","","{nr2=[4], oh=[0, 10]}","OC(C)CN(CC=C)CC(O)C","nr2","25.0","?C","","-","JHHCQWBYIIKQGT-UHFFFAOYSA"
"C=CCN(CC=C)CC=C","-","R945028","M18424","-","-","1-diallylaminoprop-2-ene","-","Koerner","charochkina","A5793","-","-","-","8.31","Log unit","8.31","Log unit","N(CC=C)(CC=C)CC=C","3","","{nr2=[3]}","C=CCN(CC=C)CC=C","nr2","25.0","?C","","-","VPYJNCGUESNPMV-UHFFFAOYSA"
"CN(C)CC=C","-","R945029","M70774","-","-","1-dimethylaminoprop-2-ene","-","Koerner","charochkina","A5793","-","-","-","8.64","Log unit","8.64","Log unit","N(C)(C)CC=C","0","","{nr2=[0]}","N(C)(C)CC=C","nr2","25.0","?C","","-","GBCKRQRXNXQQPW-UHFFFAOYSA"