"SMILES","CASRN","RECORDID","MOLECULEID","EXTERNALID","N","NAME","NAME","INTRODUCER","MODIFIER","ARTICLEID","PUBMEDID","PAGE","TABLE","pKa (smiles as ob. cond.) {measured}","UNIT {pKa (smiles as ob. cond.)}","pKa (smiles as ob. cond.) {measured, converted}","UNIT {pKa (smiles as ob. cond.)}","Ionizable centre (smiles)","IC group detected","AtomNR of IC","groupsAndICs","IC smiles given","IC group given","Temperature","UNIT {Temperature}","MultiGroupDetection","COMMENTS","INCHI_KEY"
"NCC(O)C1=CC=CC(O)=C1","-","R945497","M21392","-","-","1-(2-amino-1-hydroxy)ethyl-3-hydroxybenzene","-","Koerner","charochkina","A5793","-","-","-","9.5","Log unit","9.5","Log unit","NCC(c1cccc(O)c1)O","7","","{nr2=[7], oh=[5, 9]}","c(ccc1C(O)CN)c(O)c1","nr2","25.0","?C","","-","LRCXRAABFLIVAI-UHFFFAOYSA"
"NCC(O)C1=CC=C(O)C=C1","-","R945498","M15373","-","-","1-(2-amino-1-hydroxy)ethyl-4-hydroxybenzene","-","Koerner","charochkina","A5793","-","-","-","9.549999","Log unit","9.549999","Log unit","NCC(c1ccc(O)cc1)O","8","","{nr2=[8], oh=[0, 6]}","O-c(ccc1C(O)CN)cc1","nr2","25.0","?C","","-","QHGUCRYDKWKLMG-UHFFFAOYSA"
"CC(N)C(O)C1=CC=CC=C1","-","R945499","M2063","-","-","(2-amino-1-hydroxy)propylbenzene","-","Koerner","charochkina","A5793","-","-","-","9.44","Log unit","9.44","Log unit","NC(C(c1ccccc1)O)C","7","","{nr2=[7], oh=[5]}","c(ccc1C(O)C(N)C)cc1","nr2","25.0","?C","","-","DLNKOYKMWOXYQA-UHFFFAOYSA"
"CC(CN)C1=CC=CC=C1","-","R945500","M565","-","-","(2-amino)isopropylbenzene","-","Koerner","charochkina","A5793","-","-","-","10.325","Log unit","10.325","Log unit","NCC(c1ccccc1)C","7","","{nr2=[7]}","c(ccc1C(C)CN)cc1","nr2","25.0","?C","","-","AXORVIZLPOGIRG-UHFFFAOYSA"
"CC(CCN)C1=CC=CC=C1","-","R945501","M86362","-","-","(2-aminomethyl)isopropylbenzene","-","Koerner","charochkina","A5793","-","-","-","10.08","Log unit","10.08","Log unit","NCCC(c1ccccc1)C","8","","{nr2=[8]}","c(ccc1C(C)CCN)cc1","nr2","25.0","?C","","-","HJMCIHLESAJJQL-UHFFFAOYSA"
"NCCCCCC1=CC=CC=C1","-","R945502","M61667","-","-","(5-amino)pentylbenzene","-","Koerner","charochkina","A5793","-","-","-","10.44","Log unit","10.44","Log unit","NCCCCCc1ccccc1","9","","{nr2=[9]}","c(ccc1CCCCCN)cc1","nr2","25.0","?C","","-","CGNLNKFBSBFJHY-UHFFFAOYSA"
"CC(N)CCCC1=CC=C(O)C=C1","-","R945503","M1107129","-","-","1-(4-amino)pentyl-4-hydroxybenzene","-","Koerner","charochkina","A5793","-","-","-","9.4","Log unit","9.4","Log unit","NC(CCCc1ccc(O)cc1)C","9","","{nr2=[9], oh=[0]}","O-c(ccc1CCCC(N)C)cc1","nr2","25.0","?C","","-","ZWXITDUYPSNPNL-UHFFFAOYSA"
"CC(N)CC1=CC=CC=C1","-","R945504","M5939","-","-","(2-amino)propylbenzene","-","Koerner","charochkina","A5793","-","-","-","10.08","Log unit","10.08","Log unit","NC(Cc1ccccc1)C","6","","{nr2=[6]}","c(ccc1CC(N)C)cc1","nr2","25.0","?C","","-","KWTSXDURSIMDCE-UHFFFAOYSA"
"NCCCC1=CC=CC=C1","-","R945505","M6570","-","-","(3-amino)propylbenzene","-","Koerner","charochkina","A5793","-","-","-","10.16","Log unit","10.16","Log unit","NCCCc1ccccc1","7","","{nr2=[7]}","c(ccc1CCCN)cc1","nr2","25.0","?C","","-","LYUQWQRTDLVQGA-UHFFFAOYSA"
"CC(N)CC1=CC=C(O)C(O)=C1","-","R945506","M56242","-","-","1-(2-amino)propyl-3,4-dimethoxybenzene","-","Koerner","charochkina","A5793","-","-","-","9.6","Log unit","9.6","Log unit","NC(Cc1ccc(O)c(O)c1)C","7","","{nr2=[7], oh=[0, 10]}","O-c(ccc1CC(N)C)c(O)c1","nr2","25.0","?C","","-","KSRGADMGIRTXAF-UHFFFAOYSA"
"COC1=CC=C(CC(C)N)C=C1","-","R945507","M15383","-","-","1-(2-amino)propyl-4-methoxybenzene","-","Koerner","charochkina","A5793","-","-","-","9.53","Log unit","9.53","Log unit","NC(Cc1ccc(cc1)OC)C","6","","{nr2=[6]}","c(cc(c1)CC(N)C)c(c1)OC","nr2","25.0","?C","","-","NEGYEDYHPHMHGK-UHFFFAOYSA"
"CC(N)CC1=CC=C2OCOC2=C1","-","R945508","M14580","-","-","1-(2-amino)propyl-3,4-methylenedioxybenzene","-","Koerner","charochkina","A5793","-","-","-","9.67","Log unit","9.67","Log unit","NC(Cc1ccc2OCOc2c1)C","9","","{nr2=[9]}","O(CO1)c(ccc2CC(N)C)c1c2","nr2","25.0","?C","","-","NGBBVGZWCFBOGO-UHFFFAOYSA"
"CCC(CN(C)C)(CN(C)C)OC(=O)C1=CC=CC=C1","-","R945509","M22986","-","-","[1-(bisdimethylaminomethyl)propoxycarbonyl]benzene","-","Koerner","charochkina","A5793","-","-","-","8.85","Log unit","8.85","Log unit","N(CC(OC(=O)c1ccccc1)(CC)CN(C)C)(C)C","11","","{nr2=[11, 15]}","c(ccc1C(=O)OC(CC)(CN(C)C)CN(C)C)cc1","nr2","25.0","?C","true","-","VEXNFKCQMGMBBJ-UHFFFAOYSA"
"CCN(CC)CCOC(=O)C1=CC=C(Br)C=C1","-","R945510","M1107130","-","-","1-bromo-4-diethylaminoethoxycarbonylbenzene","-","Koerner","charochkina","A5793","-","-","-","8.12","Log unit","8.12","Log unit","N(CCOC(=O)c1ccc(Br)cc1)(CC)CC","10","","{nr2=[10]}","Br-c(ccc1C(=O)OCCN(CC)CC)cc1","nr2","25.0","?C","","-","HSTRBLADVQWITL-UHFFFAOYSA"
"CCCCOC1=CC(=CC=C1)C(=O)OCCN(CC)CC","-","R945511","M1107131","-","-","1-n-butoxy-3-diethylaminoethoxycarbonylbenzene","-","Koerner","charochkina","A5793","-","-","-","8.11","Log unit","8.11","Log unit","N(CCOC(=O)c1cccc(c1)OCCCC)(CC)CC","16","","{nr2=[16]}","c(cc(c1)OCCCC)cc1C(=O)OCCN(CC)CC","nr2","25.0","?C","","-","GBKMJTCLMXSYPC-UHFFFAOYSA"
"CCCCOC1=CC=C(C=C1)C(=O)OCCN1CCCCC1","-","R945512","M1107132","-","-","1-n-butoxy-4-piperidylethoxycarbonylbenzene","-","Koerner","charochkina","A5793","-","-","-","8.3","Log unit","8.3","Log unit","N1(CCCCC1)CCOC(=O)c1ccc(OCCCC)cc1","4","","{nr2=[4]}","C(CCC1)N(C1)CCOC(=O)c(ccc2OCCCC)cc2","nr2","25.0","?C","","-","LBTGXNJGEAITMT-UHFFFAOYSA"
"CCN(CC)CCOC(=O)C1=CC=C(Cl)C=C1","-","R945513","M1107133","-","-","1-chloro-4-diethylaminoethoxycarbonylbenzene","-","Koerner","charochkina","A5793","-","-","-","8.08","Log unit","8.08","Log unit","N(CCOC(=O)c1ccc(Cl)cc1)(CC)CC","10","","{nr2=[10]}","Cl-c(ccc1C(=O)OCCN(CC)CC)cc1","nr2","25.0","?C","","-","YBWWQKVPBNGZPD-UHFFFAOYSA"
"CC(CC1=CC=CC=C1)NCCC#N","-","R945514","M33615","-","-","2-(N-(2-cyano)ethyl)aminopropylbenzene","-","Koerner","charochkina","A5793","-","-","-","7.23","Log unit","7.23","Log unit","N(C(Cc1ccccc1)C)CCC#N","6","","{nr2=[6]}","c(ccc1CC(NCCC#N)C)cc1","nr2","25.0","?C","","-","IQUFSXIQAFPIMR-UHFFFAOYSA"
"CN(CCCC1=CC=CC=C1)CCC#N","-","R945515","M1107134","-","-","2-(N-(2-cyanoethyl)-N-methyl)aminopropylbenzene","-","Koerner","charochkina","A5793","-","-","-","6.95","Log unit","6.95","Log unit","N(CCCc1ccccc1)(C)CCC#N","9","","{nr2=[9]}","c1ccccc1CCCN(C)CCC#N","nr2","25.0","?C","","-","FRALTFUJXZGPNR-UHFFFAOYSA"
"CCN(CC)CC(C)(C)COC(=O)C1=CC=CC=C1","-","R945516","M1107135","-","-","(3-diethylamino-2,2-dimethyl)propoxycarbonylbenzene","-","Koerner","charochkina","A5793","-","-","-","9.58","Log unit","9.58","Log unit","N(CC(COC(=O)c1ccccc1)(C)C)(CC)CC","12","","{nr2=[12]}","c(ccc1C(=O)OCC(C)(C)CN(CC)CC)cc1","nr2","25.0","?C","","-","WOLPBZGOYWGWDV-UHFFFAOYSA"
"CCN(CC)CCCOC(=O)C=CC1=CC=CC=C1","-","R945517","M21433","-","-","2-[3-(diethylamino)propoxycarbonyl]vinylbenzene","-","Koerner","charochkina","A5793","-","-","-","9.71","Log unit","9.71","Log unit","N(CCCOC(=O)C=Cc1ccccc1)(CC)CC","12","","{nr2=[12]}","c(ccc1C=CC(=O)OCCCN(CC)CC)cc1","nr2","25.0","?C","","-","CHLMFHKZCVSJIJ-UHFFFAOYSA"
"CC(C)NCC(O)C1=CC=C(O)C(O)=C1","-","R945518","M18867","-","-","1,2-dihydroxy-4-(1-hydroxy-2-isopropylamino)ethylbenzene","-","Koerner","charochkina","A5793","-","-","-","8.795","Log unit","8.795","Log unit","N(CC(c1ccc(O)c(O)c1)O)C(C)C","8","","{nr2=[8], oh=[0, 6, 13]}","O-c(ccc1C(O)CNC(C)C)c(O)c1","nr2","25.0","?C","","-","JWZZKOKVBUJMES-UHFFFAOYSA"
"CC(C)NC(C(C)C)C(O)C1=CC=C(O)C(O)=C1","-","R945519","M1107136","-","-","1,2-dihydroxy-4-(1-hydroxy-2-isopropylamino-3-methyl)butylbenzene","-","Koerner","charochkina","A5793","-","-","-","8.88","Log unit","8.88","Log unit","N(C(C(c1ccc(O)c(O)c1)O)C(C)C)C(C)C","8","","{nr2=[8], oh=[0, 6, 16]}","O-c(ccc1C(O)C(NC(C)C)C(C)C)c(O)c1","nr2","25.0","?C","","-","AWAFJOIACDJLEF-UHFFFAOYSA"
"CNCC(O)C1=CC=C(O)C([O-])=C1","-","R945520","M10959","-","-","1,2-dihydroxy-4-(1-hydroxy-2-methylamino)ethylbenzene","-","Koerner","charochkina","A5793","-","-","-","10.5","Log unit","10.5","Log unit","N(CC(c1ccc(O)c([O-])c1)O)C","8","","{nr2=[8], oh=[0, 6]}","O-c(ccc1C(O)CNC)c([O-1])c1","nr2","25.0","?C","","-","UCTWMZQNUQWSLP-UHFFFAOYSA"
"CNCCC1=CC=C(O)C([O-])=C1","-","R945521","M7298","-","-","1,2-dihydroxy-4-(2-methylamino)ethylbenzene","-","Koerner","charochkina","A5793","-","-","-","10.6","Log unit","10.6","Log unit","N(CCc1ccc(O)c([O-])c1)C","7","","{nr2=[7], oh=[0]}","O-c(ccc1CCNC)c([O-1])c1","nr2","25.0","?C","","-","NGKZFDYBISXGGS-UHFFFAOYSA"
"CNC(C)CC1=CC(OC)=C(OC)C=C1","-","R945522","M1107137","-","-","1,2-dimethoxy-4-(2-methylamino)propylbenzene","-","Koerner","charochkina","A5793","-","-","-","9.81","Log unit","9.81","Log unit","N(C(Cc1ccc(OC)c(c1)OC)C)C","6","","{nr2=[6]}","c(cc(c1)CC(NC)C)c(OC)c1OC","nr2","25.0","?C","","-","BUWHCARWGYFQPE-UHFFFAOYSA"
"CN(C)CC(O)C1=CC=C(O)C=C1","-","R945523","M1107138","-","-","1-(2-dimethylamino-1-hydroxy)ethyl-4-hydroxybenzene","-","Koerner","charochkina","A5793","-","-","-","9.8","Log unit","9.8","Log unit","Oc1ccc(C(O)CN(C)C)cc1","0","","{nr2=[8], oh=[0, 6]}","O-c(ccc1C(O)CN(C)C)cc1","oh","25.0","?C","true","-","WMSYKJQBWJUMLL-UHFFFAOYSA"
"CC(C(O)C1=CC=CC=C1)N(C)C","-","R945524","M21635","-","-","(2-dimethylamino-1-hydroxy)propylbenzene","-","Koerner","charochkina","A5793","-","-","-","9.2","Log unit","9.2","Log unit","N(C(C(c1ccccc1)O)C)(C)C","7","","{nr2=[7], oh=[5]}","c(ccc1C(O)C(N(C)C)C)cc1","nr2","25.0","?C","","-","FMCGSUUBYTWNDP-UHFFFAOYSA"
"CCC(C)(CN(C)C)OC(=O)C1=CC=CC=C1","-","R945525","M56476","-","-","(1-dimethylaminomethyl-1-methyl)propoxycarbonylbenzene","-","Koerner","charochkina","A5793","-","-","-","8.09","Log unit","8.09","Log unit","N(CC(OC(=O)c1ccccc1)(CC)C)(C)C","12","","{nr2=[12]}","c(ccc1C(=O)OC(CC)(C)CN(C)C)cc1","nr2","25.0","?C","","-","FDMBBCOBEAVDAO-UHFFFAOYSA"
"CCOC1=CC=C(N)C=C1","-","R945326","M19743","-","-","4-ETHOXY-ANILINE","-","Koerner","charochkina","A5793","-","-","-","5.2","Log unit","5.2","Log unit","Nc1ccc(cc1)OCC","9","","{nr2=[9]}","c(cc(c1)OCC)c(c1)N","nr2","25.0","?C","","-","IMPPGHMHELILKG-UHFFFAOYSA"
"CCOC(=O)C1=CC=CC=C1N","-","R945327","M17843","-","-","2-ethoxycarbonyl-aniline","-","Koerner","charochkina","A5793","-","-","-","2.18","Log unit","2.18","Log unit","Nc1ccccc1C(=O)OCC","11","","{nr2=[11]}","c(ccc1C(=O)OCC)cc1N","nr2","25.0","?C","","-","TWLLPUMZVVGILS-UHFFFAOYSA"
"CCOC(=O)C1=CC=C(N)C=C1","-","R945328","M844","-","-","4-ethoxycarbonyl-aniline","-","Koerner","charochkina","A5793","-","-","-","2.437","Log unit","2.437","Log unit","Nc1ccc(cc1)C(=O)OCC","11","","{nr2=[11]}","c(cc(c1)C(=O)OCC)c(c1)N","nr2","25.0","?C","","-","BLFLLBZGZJTVJG-UHFFFAOYSA"
"CCOC(=O)C1=C(C=CC(N)=C1)N(=O)=O","-","R945329","M1107084","-","-","3-ethoxycarbonyl-4-nitroaniline","-","Koerner","charochkina","A5793","-","-","-","-0.11","Log unit","-0.11","Log unit","N(=O)(=O)c1ccc(cc1C(=O)OCC)N","3","","{nr2=[3, 14]}","c(cc(N(=O)=O)c1C(=O)OCC)c(c1)N","nr2","25.0","?C","true","-","MMEMLRKAZZYFGC-UHFFFAOYSA"
"CCNC1=CC=CC=C1","-","R945330","M7977","-","-","n-ethylaniline","-","Koerner","charochkina","A5793","-","-","-","5.12","Log unit","5.12","Log unit","N(c1ccccc1)CC","4","","{nr2=[4]}","c(ccc1NCC)cc1","nr2","25.0","?C","","-","OJGMBLNIHDZDGS-UHFFFAOYSA"
"CCC1=CC=CC=C1N","-","R945331","M6855","-","-","2-ethyl-aniline","-","Koerner","charochkina","A5793","-","-","-","4.37","Log unit","4.37","Log unit","Nc1ccccc1CC","8","","{nr2=[8]}","c(ccc1CC)cc1N","nr2","25.0","?C","","-","MLPVBIWIRCKMJV-UHFFFAOYSA"
"CCC1=CC=CC(N)=C1","-","R945332","M284","-","-","3-ethyl-aniline","-","Koerner","charochkina","A5793","-","-","-","4.7","Log unit","4.7","Log unit","Nc1cccc(c1)CC","4","","{nr2=[4]}","c(cc(c1)N)cc1CC","nr2","25.0","?C","","-","AMKPQMFZCBTTAT-UHFFFAOYSA"
"CCOC(=O)COC1=CC=C(N)C=C1","-","R945333","M1107085","-","-","4-ethoxycarbonylmethoxyaniline","-","Koerner","charochkina","A5793","-","-","-","5.09","Log unit","5.09","Log unit","Nc1ccc(cc1)OCC(=O)OCC","13","","{nr2=[13]}","c(cc(c1)OCC(=O)OCC)c(c1)N","nr2","25.0","?C","","-","IBGBOGKPIMZRRU-UHFFFAOYSA"
"CCOC(=O)C1=CC(N)=CC(=C1)N(=O)=O","-","R945334","M472217","-","-","3-ethoxycarbonyl-5-nitroaniline","-","Koerner","charochkina","A5793","-","-","-","0.98","Log unit","0.98","Log unit","Nc1cc(cc(c1)C(=O)OCC)N(=O)=O","9","","{nr2=[9, 12]}","c(c(cc1C(=O)OCC)N)c(c1)N(=O)=O","nr2","25.0","?C","true","-","DJOFAKOEQNUEAK-UHFFFAOYSA"
"CCC1=CC=C(N)C=C1","-","R945335","M4030","-","-","4-ethylaniline","-","Koerner","charochkina","A5793","-","-","-","5.0","Log unit","5.0","Log unit","Nc1ccc(cc1)CC","8","","{nr2=[8]}","c(cc(c1)CC)c(c1)N","nr2","25.0","?C","","-","HRXZRAXKKNUKRF-UHFFFAOYSA"
"CCN(C)C1=CC=CC=C1","-","R945336","M8732","-","-","N-ethyl-N-methylaniline","-","Koerner","charochkina","A5793","-","-","-","6.02","Log unit","6.02","Log unit","N(c1ccccc1)(C)CC","4","","{nr2=[4]}","c(ccc1N(C)CC)cc1","nr2","25.0","?C","","-","PPHQUIPUBYPZLD-UHFFFAOYSA"
"CCNC1=CC=CC=C1C","-","R945337","M18116","-","-","N-Ethyl-2-methylaniline","-","Koerner","charochkina","A5793","-","-","-","4.96","Log unit","4.96","Log unit","N(c1ccccc1C)CC","4","","{nr2=[4]}","c(ccc1NCC)cc1C","nr2","25.0","?C","","-","MWOUGPLLVVEUMM-UHFFFAOYSA"
"CCNC1=CC=C(C)C=C1","-","R945338","M22695","-","-","N-Ethyl-4-methylaniline","-","Koerner","charochkina","A5793","-","-","-","5.645","Log unit","5.645","Log unit","N(c1ccc(cc1)C)CC","4","","{nr2=[4]}","c(cc(c1)NCC)c(c1)C","nr2","25.0","?C","","-","AASABFUMCBTXRL-UHFFFAOYSA"
"CCC(C)(CC)NC1=CC=CC=C1","-","R945339","M1107086","-","-","N-(1-ethyl-1-methyl)propylaniline","-","Koerner","charochkina","A5793","-","-","-","6.32","Log unit","6.32","Log unit","N(c1ccccc1)C(C)(CC)CC","4","","{nr2=[4]}","c(ccc1NC(C)(CC)CC)cc1","nr2","25.0","?C","","-","SPWKIZIVWPNBTB-UHFFFAOYSA"
"CCCN(CC)C1=CC=CC=C1","-","R945340","M1107087","-","-","N-ethyl-N-n-propylaniline","-","Koerner","charochkina","A5793","-","-","-","6.395","Log unit","6.395","Log unit","N(c1ccccc1)(CC)CCC","4","","{nr2=[4]}","c(ccc1N(CC)CCC)cc1","nr2","25.0","?C","","-","PAZVJIOFFOOQLQ-UHFFFAOYSA"
"CCSC1=CC=C(N)C=C1","-","R945341","M1107088","-","-","4-ethylthioaniline","-","Koerner","charochkina","A5793","-","-","-","4.0","Log unit","4.0","Log unit","Nc1ccc(SCC)cc1","7","","{nr2=[7]}","S(CC)-c(ccc1N)cc1","nr2","25.0","?C","","-","YGALCOBBSXYFLF-UHFFFAOYSA"
"NC1=CC=CC=C1F","-","R945342","M2917","-","-","2-fluoro-aniline","-","Koerner","charochkina","A5793","-","-","-","3.225","Log unit","3.225","Log unit","Nc1c(F)cccc1","7","","{nr2=[7]}","F-c(ccc1)c(c1)N","nr2","25.0","?C","","-","FTZQXOJYPFINKJ-UHFFFAOYSA"
"NC1=CC(F)=CC=C1","-","R945343","M9559","-","-","3-fluoro-aniline","-","Koerner","charochkina","A5793","-","-","-","3.58","Log unit","3.58","Log unit","Nc1cc(F)ccc1","7","","{nr2=[7]}","F-c(ccc1)cc1N","nr2","25.0","?C","","-","QZVQQUVWFIZUBQ-UHFFFAOYSA"
"NC1=CC=C(F)C=C1","-","R945344","M5817","-","-","4-fluoro-aniline","-","Koerner","charochkina","A5793","-","-","-","4.65","Log unit","4.65","Log unit","Nc1ccc(F)cc1","5","","{nr2=[5]}","F-c(ccc1N)cc1","nr2","25.0","?C","","-","KRZCOLNOCZKSDF-UHFFFAOYSA"
"NC1=CC(=CC=C1F)N(=O)=O","-","R945345","M66194","-","-","2-Fluoro-5-nitroaniline","-","Koerner","charochkina","A5793","-","-","-","1.09","Log unit","1.09","Log unit","N(=O)(=O)c1ccc(F)c(c1)N","5","","{nr2=[5, 10]}","F-c(ccc1N(=O)=O)c(c1)N","nr2","25.0","?C","true","-","KJVBJICWGQIMOZ-UHFFFAOYSA"
"NC1=CC=C(F)C=C1N(=O)=O","-","R945346","M66166","-","-","4-Fluoro-2-nitroaniline","-","Koerner","charochkina","A5793","-","-","-","-0.39","Log unit","-0.39","Log unit","Nc1ccc(F)cc1N(=O)=O","5","","{nr2=[5, 8]}","F-c(ccc1N)cc1N(=O)=O","nr2","25.0","?C","true","-","PUGDHSSOXPHLPT-UHFFFAOYSA"
"NC1=CC=C(F)C(=C1)N(=O)=O","-","R945347","M20210","-","-","4-Fluoro-3-nitroaniline","-","Koerner","charochkina","A5793","-","-","-","2.4","Log unit","2.4","Log unit","Nc1ccc(F)c(c1)N(=O)=O","5","","{nr2=[5, 8]}","F-c(ccc1N)c(c1)N(=O)=O","nr2","25.0","?C","true","-","LLIOADBCFIXIEU-UHFFFAOYSA"
"NC1=CC=CC=C1C=O","-","R945348","M21294","-","-","2-formylaniline","-","Koerner","charochkina","A5793","-","-","-","1.36","Log unit","1.36","Log unit","Nc1ccccc1C=O","8","","{nr2=[8]}","c(ccc1C=O)cc1N","nr2","25.0","?C","","-","FXWFZIRWWNPPOV-UHFFFAOYSA"
"NC1=CC=C(C=O)C=C1","-","R945349","M21701","-","-","4-formyl-aniline","-","Koerner","charochkina","A5793","-","-","-","1.76","Log unit","1.76","Log unit","Nc1ccc(cc1)C=O","8","","{nr2=[8]}","c(cc(c1)C=O)c(c1)N","nr2","25.0","?C","","-","VATYWCRQDJIRAI-UHFFFAOYSA"
"CCCCCCNC1=CC=CC=C1","-","R945350","M211874","-","-","N-n-hexylaniline","-","Koerner","charochkina","A5793","-","-","-","5.42","Log unit","5.42","Log unit","N(c1ccccc1)CCCCCC","4","","{nr2=[4]}","c(ccc1NCCCCCC)cc1","nr2","25.0","?C","","-","OXHJCNSXYDSOFN-UHFFFAOYSA"
"CCCC(C)(C)NC1=CC=CC=C1","-","R945351","M1107089","-","-","N-t-hexylaniline","-","Koerner","charochkina","A5793","-","-","-","6.3","Log unit","6.3","Log unit","N(c1ccccc1)C(C)(C)CCC","4","","{nr2=[4]}","c(ccc1NC(C)(C)CCC)cc1","nr2","25.0","?C","","-","LLTOSQHBEVPJLD-UHFFFAOYSA"
"NC1=CC=CC=C1O","-","R945352","M1251","-","-","2-hydroxy-aniline","-","Koerner","charochkina","A5793","-","-","-","4.7605","Log unit","4.7605","Log unit","Nc1ccccc1O","4","","{nr2=[4], oh=[7]}","c(ccc1N)cc1O","nr2","25.0","?C","","-","CDAWCLOXVUBKRW-UHFFFAOYSA"
"NC1=CC=CC(O)=C1","-","R945353","M1697","-","-","3-hydroxy-aniline","-","Koerner","charochkina","A5793","-","-","-","4.27","Log unit","4.27","Log unit","Nc1cccc(c1)O","7","","{nr2=[7], oh=[4]}","c(cc(c1)O)cc1N","nr2","25.0","?C","","-","CWLKGDAVCFYWJK-UHFFFAOYSA"
"NC1=CC=C(O)C=C1","-","R945354","M8656","-","-","4-hydroxy-aniline","-","Koerner","charochkina","A5793","-","-","-","5.575","Log unit","5.575","Log unit","Nc1ccc(cc1)O","4","","{nr2=[4], oh=[7]}","c(cc(c1)N)c(c1)O","nr2","25.0","?C","","-","PLIKAWJENQZMHA-UHFFFAOYSA"
"CC1=C(C)C=C(O)C(N)=C1","-","R945355","M77662","-","-","2-hydroxy-4,5-dimethylaniline","-","Koerner","charochkina","A5793","-","-","-","5.26","Log unit","5.26","Log unit","Nc1c(O)cc(c(C)c1)C","9","","{nr2=[9], oh=[0]}","O-c(cc(c1C)C)c(c1)N","nr2","25.0","?C","","-","JEASLLCHQHBBGM-UHFFFAOYSA"
"OCCNC1=CC=CC=C1","-","R945356","M19141","-","-","N-(2-Hydroxyethyl)aniline","-","Koerner","charochkina","A5793","-","-","-","4.14","Log unit","4.14","Log unit","N(c1ccccc1)CCO","4","","{nr2=[4], oh=[7]}","c(ccc1NCCO)cc1","nr2","25.0","?C","","-","MWGATWIBSKHFMR-UHFFFAOYSA"
"CC1=CC=CC=C1NCCO","-","R945357","M19459","-","-","N-(2-hydroxyethyl)-o-methylaniline","-","Koerner","charochkina","A5793","-","-","-","4.18","Log unit","4.18","Log unit","N(c1ccccc1C)CCO","4","","{nr2=[4], oh=[7]}","c(ccc1NCCO)cc1C","nr2","25.0","?C","","-","DHZZPKMVVSTYLF-UHFFFAOYSA"
"COC1=CC(CN)=CC=C1O","-","R945358","M12553","-","-","3-hydroxy-2-methoxybenzylamine","-","Koerner","charochkina","A5793","-","-","-","8.94","Log unit","8.94","Log unit","NCc1ccc(O)c(c1)OC","6","","{nr2=[6], oh=[0]}","O-c(ccc1CN)c(c1)OC","nr2","25.0","?C","","-","WRPWWVNUCXQDQV-UHFFFAOYSA"
"COC1=CC(CN)=CC=C1O","-","R945359","M12553","-","-","3-hydroxy-2-methoxybenzylamine","-","Koerner","charochkina","A5793","-","-","-","10.4","Log unit","10.4","Log unit","Oc1ccc(CN)cc1OC","0","","{nr2=[6], oh=[0]}","O-c(ccc1CN)c(c1)OC","oh","25.0","?C","","-","WRPWWVNUCXQDQV-UHFFFAOYSA"
"COC1=C(O)C(CN)=CC=C1","-","R945360","M1107090","-","-","1-hydroxy-2-methoxybenzylamine","-","Koerner","charochkina","A5793","-","-","-","8.7","Log unit","8.7","Log unit","NCc1cccc(OC)c1O","10","","{nr2=[10], oh=[6]}","c(cc(OC)c1O)cc1CN","nr2","25.0","?C","","-","CLJHZQFAKIIMBA-UHFFFAOYSA"
"COC1=C(O)C(CN)=CC=C1","-","R945361","M1107090","-","-","1-hydroxy-2-methoxybenzylamine","-","Koerner","charochkina","A5793","-","-","-","10.5","Log unit","10.5","Log unit","Oc1c(cccc1CN)OC","6","","{nr2=[10], oh=[6]}","c(cc(OC)c1O)cc1CN","oh","25.0","?C","","-","CLJHZQFAKIIMBA-UHFFFAOYSA"
"COC1=C(O)C=CC=C1CN","-","R945362","M1107091","-","-","2-hydroxy-1-methoxybenzylamine","-","Koerner","charochkina","A5793","-","-","-","8.89","Log unit","8.89","Log unit","NCc1cccc(O)c1OC","10","","{nr2=[10], oh=[3]}","c(cc(O)c1OC)cc1CN","nr2","25.0","?C","","-","MWMAXRIRXNYYMV-UHFFFAOYSA"