Smiles,CASRN,Record ID,Molecule ID,External ID,N,Name,Introducer,Modifer,Article ID,PUBMED ID,PAGE,TABLE,pKa,pKa Unit,Temperature,Temperature Unit,Ionizable center smiles,IC group
COC1=CC=C(OCC(O)=O)C=C1,-,R935711,M763,-,-,para-methoxyphenoxy-acetic acid,Koerner,charochkina,A5793,-,-,-,3.21,Log unit,25,?C,OC(=O)COc1ccc(cc1)OC,"{co2h=8, aliphatic_carboxylic_acid=8}"
CC(O)C(O)=O,-,R935712,M5306,-,-,Lactic acid,Koerner,charochkina,A5793,-,-,-,3.86,Log unit,25,?C,OC(=O)C(O)C,"{co2h=2, aliphatic_carboxylic_acid=2}"
CC(OC1CCCCC1)C(O)=O,-,R935713,M1018391,-,-,alpha-(cyclohexy-oxy)-propionic acid,Koerner,charochkina,A5793,-,-,-,3.64,Log unit,25,?C,OC(=O)C(OC1CCCCC1)C,"{co2h=10, aliphatic_carboxylic_acid=10}"
CC(OC1CCCCC1C)C(O)=O,-,R935714,M1018392,-,-,alpha-(2-methylcyclohexyl-oxy)-propionic acid,Koerner,charochkina,A5793,-,-,-,3.65,Log unit,25,?C,OC(=O)C(OC1CCCCC1C)C,"{co2h=11, aliphatic_carboxylic_acid=11}"
CC(C)(O)C(O)=O,-,R935715,M1103,-,-,dimethyl-glycolic acid,Koerner,charochkina,A5793,-,-,-,3.78,Log unit,25,?C,OC(=O)C(O)(C)C,"{co2h=2, aliphatic_carboxylic_acid=2}"
CCC(C)(O)C(O)=O,-,R935716,M28640,-,-,methyl-ethyl-glycolic acid,Koerner,charochkina,A5793,-,-,-,3.86,Log unit,25,?C,OC(=O)C(O)(C)CC,"{co2h=2, aliphatic_carboxylic_acid=2}"
CC(O)C(C)C(O)=O,-,R935717,M1018393,-,-,alpha-methyl-beta-hydroxy-n-butyric acid,Koerner,charochkina,A5793,-,-,-,4.65,Log unit,25,?C,OC(=O)C(C)C(O)C,"{co2h=2, aliphatic_carboxylic_acid=2}"
CCC(O)(CC)C(O)=O,-,R935718,M28488,-,-,diethyl-glycolic acid,Koerner,charochkina,A5793,-,-,-,3.8,Log unit,25,?C,OC(=O)C(O)(CC)CC,"{co2h=2, aliphatic_carboxylic_acid=2}"
CC(O)CCC(O)=O,-,R935719,M114327,-,-,gamma-hydroxy-valeric acid,Koerner,charochkina,A5793,-,-,-,4.96,Log unit,25,?C,OC(=O)CCC(O)C,"{co2h=2, aliphatic_carboxylic_acid=2}"
CC(C)(O)CCC(O)=O,-,R935720,M1018394,-,-,gamma-hydroxy-iso-capronic acid,Koerner,charochkina,A5793,-,-,-,4.87,Log unit,25,?C,OC(=O)CCC(O)(C)C,"{co2h=2, aliphatic_carboxylic_acid=2}"
CC(C)C(O)CCC(C)CC(O)=O,-,R935721,M1018395,-,-,epsilon-hydroxy-beta-methyl-epsilon-iso-propyl-n-capronic acid,Koerner,charochkina,A5793,-,-,-,5.07,Log unit,25,?C,OC(=O)CC(C)CCC(O)C(C)C,"{co2h=2, aliphatic_carboxylic_acid=2}"
OC1CCCCC1C(O)=O,-,R935722,M740685,-,-,trans-2-hydroxy-cyclohexane-carboxylic acid,Koerner,charochkina,A5793,-,-,-,4.68,Log unit,25,?C,OC(=O)C1C(O)CCCC1,"{co2h=9, aliphatic_carboxylic_acid=9}"
OC1CCCC(CC1)C(O)=O,-,R935723,M1018396,-,-,trans-3-hydroxy-cyclohexane-carboxylic acid,Koerner,charochkina,A5793,-,-,-,4.82,Log unit,25,?C,OC(=O)C1CCC(O)CCC1,"{co2h=10, aliphatic_carboxylic_acid=10}"
OC1CCC(CC1)C(O)=O,-,R935724,M740643,-,-,trans-4-hydroxy-cyclohexane-carboxylic acid,Koerner,charochkina,A5793,-,-,-,4.68,Log unit,25,?C,OC(=O)C1CCC(O)CC1,"{co2h=7, aliphatic_carboxylic_acid=7}"
OC(CC(O)=O)C(O)=O,-,R935725,M804,-,-,malic acid,Koerner,charochkina,A5793,-,-,-,3.5,Log unit,25,?C,OC(=O)CC(O)C(=O)O,"{co2h=2, aliphatic_carboxylic_acid=2}"
OC(CC(O)=O)C([O-])=O,-,R935726,M804,-,-,malic acid,Koerner,charochkina,A5793,-,-,-,4.5,Log unit,25,?C,OC(=O)CC(O)C(=O)[O-],"{co2h=2, aliphatic_carboxylic_acid=2}"
OC(C(O)C(O)=O)C(O)=O,-,R935727,M2545,-,-,d-Tartaric acid,Koerner,charochkina,A5793,-,-,-,3.04,Log unit,25,?C,OC(=O)C(O)C(O)C(=O)O,"{co2h=2, aliphatic_carboxylic_acid=2}"
OC(=O)CC(CC(O)=O)OC(O)=O,-,R935728,M1018397,-,-,citric acid,Koerner,charochkina,A5793,-,-,-,2.9,Log unit,25,?C,OC(=O)OC(CC(=O)O)CC(=O)O,"{co2h=2, aliphatic_carboxylic_acid=8}"
OC(=O)CC(CC(O)=O)OC([O-])=O,-,R935729,M1018397,-,-,citric acid,Koerner,charochkina,A5793,-,-,-,4.6,Log unit,25,?C,OC(=O)CC(OC(=O)[O-])CC(=O)O,"{co2h=8, aliphatic_carboxylic_acid=8}"
OC(=O)CC(CC([O-])=O)OC([O-])=O,-,R935730,M1018397,-,-,citric acid,Koerner,charochkina,A5793,-,-,-,5.1,Log unit,25,?C,OC(=O)CC(OC(=O)[O-])CC(=O)[O-],"{co2h=12, aliphatic_carboxylic_acid=12}"
[NH3+]CC(O)=O,-,R935731,M1956,-,-,"glycine, amino-acetic acid",Koerner,charochkina,A5793,-,-,-,2.328,Log unit,25,?C,OC(=O)C[NH3+],"{co2h=2, aliphatic_carboxylic_acid=2}"
C[NH2+]CC(O)=O,-,R935732,M18636,-,-,N-methyl-glycine,Koerner,charochkina,A5793,-,-,-,2.35,Log unit,25,?C,OC(=O)C[NH2+]C,"{co2h=2, aliphatic_carboxylic_acid=2}"
CC[NH2+]CC(O)=O,-,R935733,M750501,-,-,N-ethyl-glycine,Koerner,charochkina,A5793,-,-,-,2.34,Log unit,25,?C,OC(=O)C[NH2+]CC,"{co2h=2, aliphatic_carboxylic_acid=2}"
NCC([O-])=O,-,R935734,M1956,-,-,"glycine, amino-acetic acid",Koerner,charochkina,A5793,-,-,-,9.6,Log unit,25,?C,NCC(=O)[O-],{nr2=4}
CNCC([O-])=O,-,R935735,M18636,-,-,N-methyl-glycine,Koerner,charochkina,A5793,-,-,-,9.9,Log unit,25,?C,N(CC(=O)[O-])C,{nr2=4}
CCC[NH2+]CC(O)=O,-,R935736,M1034157,-,-,N-n-propyl-glycine,Koerner,charochkina,A5793,-,-,-,2.35,Log unit,25,?C,OC(=O)C[NH2+]CCC,"{co2h=2, aliphatic_carboxylic_acid=2}"
CCCNCC([O-])=O,-,R935737,M1034157,-,-,N-n-propyl-glycine,Koerner,charochkina,A5793,-,-,-,10.19,Log unit,25,?C,N(CC(=O)[O-])CCC,{nr2=4}
CCCC[NH2+]CC(O)=O,-,R935738,M124385,-,-,N-n-butyl-glycine,Koerner,charochkina,A5793,-,-,-,2.35,Log unit,25,?C,OC(=O)C[NH2+]CCCC,"{co2h=2, aliphatic_carboxylic_acid=2}"
CCCCNCC([O-])=O,-,R935739,M124385,-,-,N-n-butyl-glycine,Koerner,charochkina,A5793,-,-,-,10.25,Log unit,25,?C,N(CC(=O)[O-])CCCC,{nr2=4}
CC(C)C[NH2+]CC(O)=O,-,R935740,M1034158,-,-,N-iso-butyl-glycine,Koerner,charochkina,A5793,-,-,-,2.35,Log unit,25,?C,OC(=O)C[NH2+]CC(C)C,"{co2h=2, aliphatic_carboxylic_acid=2}"
CC(C)CNCC([O-])=O,-,R935741,M1034158,-,-,N-iso-butyl-glycine,Koerner,charochkina,A5793,-,-,-,10.12,Log unit,25,?C,N(CC(=O)[O-])CC(C)C,{nr2=4}
OC(=O)CNC=O,-,R935742,M26971,-,-,N-formyl-glycine,Koerner,charochkina,A5793,-,-,-,3.43,Log unit,25,?C,OC(=O)CNC=O,"{co2h=6, aliphatic_carboxylic_acid=6}"
CC(C)C(=O)NCC(O)=O,-,R935743,M1018398,-,-,N-propionyl-glycine,Koerner,charochkina,A5793,-,-,-,3.718,Log unit,25,?C,OC(=O)CNC(=O)C(C)C,"{co2h=2, aliphatic_carboxylic_acid=2}"
NC(=O)NCC(O)=O,-,R935744,M20564,-,-,N-carbamoyl-glycine,Koerner,charochkina,A5793,-,-,-,3.87445,Log unit,25,?C,OC(=O)CNC(=O)N,"{co2h=7, aliphatic_carboxylic_acid=7}"
CCOC(=O)NCC(O)=O,-,R935745,M1018399,-,-,N-carbethoxy-glycine,Koerner,charochkina,A5793,-,-,-,3.66,Log unit,25,?C,OC(=O)CNC(=O)OCC,"{co2h=9, aliphatic_carboxylic_acid=9}"
OCC[NH+](CCO)CC(O)=O,-,R935746,M19690,-,-,"N,N-di(beta-hydroxyethyl)-glycine",Koerner,charochkina,A5793,-,-,-,1.99,Log unit,25,?C,OC(=O)C[NH+](CCO)CCO,"{co2h=2, aliphatic_carboxylic_acid=2}"
OCCN(CCO)CC([O-])=O,-,R935747,M19690,-,-,"N,N-di(beta-hydroxyethyl)-glycine",Koerner,charochkina,A5793,-,-,-,8.08,Log unit,25,?C,N(CC(=O)[O-])(CCO)CCO,{nr2=4}
CC(=O)NCC(O)=O,-,R935748,M21526,-,-,N-acetyl-glycine,Koerner,charochkina,A5793,-,-,-,3.6712,Log unit,25,?C,OC(=O)CNC(=O)C,"{co2h=6, aliphatic_carboxylic_acid=6}"
OC(=O)CNC(=O)CCl,-,R935749,M1018400,-,-,N-(beta-chloroacetyl)-glycine,Koerner,charochkina,A5793,-,-,-,3.38,Log unit,25,?C,OC(=O)CNC(=O)CCl,"{co2h=8, aliphatic_carboxylic_acid=8}"
CC([NH3+])C(O)=O,-,R935750,M9272,-,-,DL-Alanine,Koerner,charochkina,A5793,-,-,-,2.3245,Log unit,25,?C,OC(=O)C([NH3+])C,"{co2h=2, aliphatic_carboxylic_acid=2}"
CC(N)C([O-])=O,-,R935751,M9272,-,-,DL-Alanine,Koerner,charochkina,A5793,-,-,-,9.8,Log unit,25,?C,NC(C(=O)[O-])C,{nr2=4}
C[NH2+]C(C)C(O)=O,-,R935752,M1034159,-,-,N-methyl-alanine,Koerner,charochkina,A5793,-,-,-,2.22,Log unit,25,?C,OC(=O)C([NH2+]C)C,"{co2h=2, aliphatic_carboxylic_acid=2}"
CNC(C)C([O-])=O,-,R935753,M1034159,-,-,N-methyl-alanine,Koerner,charochkina,A5793,-,-,-,10.2,Log unit,25,?C,N(C(C(=O)[O-])C)C,{nr2=4}
CC[NH2+]C(C)C(O)=O,-,R935754,M44661,-,-,N-ethyl-alanine,Koerner,charochkina,A5793,-,-,-,2.22,Log unit,25,?C,OC(=O)C([NH2+]CC)C,"{co2h=2, aliphatic_carboxylic_acid=2}"
CCNC(C)C([O-])=O,-,R935755,M44661,-,-,N-ethyl-alanine,Koerner,charochkina,A5793,-,-,-,10.22,Log unit,25,?C,N(C(C(=O)[O-])C)CC,{nr2=4}
CCC[NH2+]C(C)C(O)=O,-,R935756,M1034160,-,-,N-n-propyl-alanine,Koerner,charochkina,A5793,-,-,-,2.21,Log unit,25,?C,OC(=O)C([NH2+]CCC)C,"{co2h=2, aliphatic_carboxylic_acid=2}"
OC(=O)CCC=C,-,R935557,M22054,-,-,n-butene-3-carboxylic acid -1,Koerner,charochkina,A5793,-,-,-,4.675,Log unit,25,?C,OC(=O)CCC=C,"{co2h=2, aliphatic_carboxylic_acid=2}"
CC=C(C)C(O)=O,-,R935558,M17616,-,-,Angelic acid,Koerner,charochkina,A5793,-,-,-,4.29,Log unit,25,?C,OC(=O)C(=CC)C,"{co2h=2, aliphatic_carboxylic_acid=2}"
CC=C(C)C(O)=O,-,R935559,M17616,-,-,TIGLIC ACID,Koerner,charochkina,A5793,-,-,-,4.96,Log unit,25,?C,OC(=O)C(=CC)C,"{co2h=2, aliphatic_carboxylic_acid=2}"
CC(C)=CC(O)=O,-,R935560,M21485,-,-,3-METHYL-2-BUTENOIC ACID,Koerner,charochkina,A5793,-,-,-,5.13,Log unit,25,?C,OC(=O)C=C(C)C,"{co2h=2, aliphatic_carboxylic_acid=2}"
CCCC=CC(O)=O,-,R935561,M7348,-,-,2-HEXENOIC ACID,Koerner,charochkina,A5793,-,-,-,4.725,Log unit,25,?C,OC(=O)C=CCCC,"{co2h=2, aliphatic_carboxylic_acid=2}"
CCC=CCC(O)=O,-,R935562,M13299,-,-,n-pentene-2-carboxylic acid-1,Koerner,charochkina,A5793,-,-,-,4.51,Log unit,25,?C,OC(=O)CC=CCC,"{co2h=2, aliphatic_carboxylic_acid=2}"
CC=CCCC(O)=O,-,R935563,M991575,-,-,n-pentene-3-carboxylic acid-1,Koerner,charochkina,A5793,-,-,-,4.72,Log unit,25,?C,OC(=O)CCC=CC,"{co2h=2, aliphatic_carboxylic_acid=2}"
OC(=O)CCCC=C,-,R935564,M25403,-,-,n-pentene-4-carboxylic acid-1,Koerner,charochkina,A5793,-,-,-,4.72,Log unit,25,?C,OC(=O)CCCC=C,"{co2h=2, aliphatic_carboxylic_acid=2}"
CCC(C)=CC(O)=O,-,R935565,M1018360,-,-,trans-2-methyl-n-butene-1-carboxylic acid-1,Koerner,charochkina,A5793,-,-,-,5.13,Log unit,25,?C,OC(=O)C=C(C)CC,"{co2h=2, aliphatic_carboxylic_acid=2}"
CCC(C)=CC(O)=O,-,R935566,M1018360,-,-,cis-2-methyl-n-butene-1-carboxylic acid,Koerner,charochkina,A5793,-,-,-,5.15,Log unit,25,?C,OC(=O)C=C(C)CC,"{co2h=2, aliphatic_carboxylic_acid=2}"
CC(C)C=CC(O)=O,-,R935567,M32484,-,-,3-methyl-n-butene-1-carboxylic-acid-1,Koerner,charochkina,A5793,-,-,-,4.7,Log unit,25,?C,OC(=O)C=CC(C)C,"{co2h=2, aliphatic_carboxylic_acid=2}"
CC(C)=CCC(O)=O,-,R935568,M110750,-,-,3-methyl-n-butene-2-carboxylic acid-1,Koerner,charochkina,A5793,-,-,-,4.6,Log unit,25,?C,OC(=O)CC=C(C)C,"{co2h=2, aliphatic_carboxylic_acid=2}"
CC(C)=CCCC(O)=O,-,R935569,M124361,-,-,4-methyl-n-pentene-3-carboxylic acid-1,Koerner,charochkina,A5793,-,-,-,4.8,Log unit,25,?C,OC(=O)CCC=C(C)C,"{co2h=2, aliphatic_carboxylic_acid=2}"
OC(=O)C=CC(O)=O,-,R935570,M18714,-,-,maleic acid,Koerner,charochkina,A5793,-,-,-,3.31,Log unit,25,?C,OC(=O)C=CC(=O)O,"{co2h=2, aliphatic_carboxylic_acid=2}"
OC(=O)C=CC([O-])=O,-,R935571,M18714,-,-,maleic acid,Koerner,charochkina,A5793,-,-,-,4.08,Log unit,25,?C,OC(=O)C=CC(=O)[O-],"{co2h=2, aliphatic_carboxylic_acid=2}"
OC(=O)C=CC(O)=O,-,R935572,M18714,-,-,FUMARIC ACID,Koerner,charochkina,A5793,-,-,-,3.3,Log unit,25,?C,OC(=O)C=CC(=O)O,"{co2h=2, aliphatic_carboxylic_acid=2}"
CC(O)CC(O)=O,-,R935573,M19880,-,-,3-hydroxy-butanoic acid,Koerner,charochkina,A5793,-,-,-,4.4,Log unit,25,?C,OC(=O)CC(O)C,"{co2h=2, aliphatic_carboxylic_acid=2}"
CC(CC(O)=O)C=O,-,R935574,M1018361,-,-,3-formyl-butanoic acid,Koerner,charochkina,A5793,-,-,-,5.02,Log unit,25,?C,OC(=O)CC(C=O)C,"{co2h=7, aliphatic_carboxylic_acid=7}"
CC(CCC(O)=O)(N(=O)=O)N(=O)=O,-,R935575,M1018362,-,-,"4,4-dinitro-pentanoic acid",Koerner,charochkina,A5793,-,-,-,3.98,Log unit,25,?C,OC(=O)CCC(N(=O)=O)(N(=O)=O)C,"{co2h=12, aliphatic_carboxylic_acid=12}"
OC(=O)CC=CC(O)=O,-,R935576,M987360,-,-,Glutaconic acid,Koerner,charochkina,A5793,-,-,-,4.1,Log unit,25,?C,OC(=O)C=CCC(=O)O,"{co2h=2, aliphatic_carboxylic_acid=2}"
OC(=O)C1CC1,-,R935577,M25722,-,-,cyclopropane-carboxlic acid,Koerner,charochkina,A5793,-,-,-,4.83,Log unit,25,?C,OC(=O)C1CC1,"{co2h=5, aliphatic_carboxylic_acid=5}"
OC(=O)C1CCC1,-,R935578,M28609,-,-,cyclobutane-carboxylic acid,Koerner,charochkina,A5793,-,-,-,4.79,Log unit,25,?C,OC(=O)C1CCC1,"{co2h=5, aliphatic_carboxylic_acid=5}"
OC(=O)C1CCCC1,-,R935579,M28194,-,-,cyclopentane-carboxylic acid,Koerner,charochkina,A5793,-,-,-,4.99,Log unit,25,?C,OC(=O)C1CCCC1,"{co2h=7, aliphatic_carboxylic_acid=7}"
OC(=O)C1CCCCC1,-,R935580,M7717,-,-,cyclohexane-carboxylic acid,Koerner,charochkina,A5793,-,-,-,4.905,Log unit,25,?C,OC(=O)C1CCCCC1,"{co2h=2, aliphatic_carboxylic_acid=2}"
CC1(CCCCC1)C(O)=O,-,R935581,M9656,-,-,1-methyl-cyclohexane-carboxylic acid,Koerner,charochkina,A5793,-,-,-,5.13,Log unit,25,?C,OC(=O)C1(CCCCC1)C,"{co2h=6, aliphatic_carboxylic_acid=6}"
CC1CCCCC1C(O)=O,-,R935582,M78176,-,-,trans-2-methyl-cyclohexane-carboxylic acid,Koerner,charochkina,A5793,-,-,-,4.74,Log unit,25,?C,OC(=O)C1CCCCC1C,"{co2h=2, aliphatic_carboxylic_acid=2}"
CC1CCCC(C1)C(O)=O,-,R935583,M113953,-,-,trans-3-methyl-cyclohexane-carboxylic acid,Koerner,charochkina,A5793,-,-,-,4.795,Log unit,25,?C,OC(=O)C1CCCC(C1)C,"{co2h=2, aliphatic_carboxylic_acid=2}"
CC1CCC(CC1)C(O)=O,-,R935584,M68191,-,-,trans-4-methyl-cyclohexane-carboxylic acid,Koerner,charochkina,A5793,-,-,-,4.89,Log unit,25,?C,OC(=O)C1CCC(C)CC1,"{co2h=2, aliphatic_carboxylic_acid=2}"
OC(=O)CC1CCCCC1,-,R935585,M30044,-,-,cyclohexyl-acetic acid,Koerner,charochkina,A5793,-,-,-,4.8,Log unit,25,?C,OC(=O)CC1CCCCC1,"{co2h=7, aliphatic_carboxylic_acid=7}"
OC(=O)CCC1CCCCC1,-,R935586,M23384,-,-,cyclohexyl-propionic acid,Koerner,charochkina,A5793,-,-,-,4.91,Log unit,25,?C,OC(=O)CCC1CCCCC1,"{co2h=8, aliphatic_carboxylic_acid=8}"
OC(=O)CCCC1CCCCC1,-,R935587,M70911,-,-,cyclohexyl-n-butyric acid,Koerner,charochkina,A5793,-,-,-,4.95,Log unit,25,?C,OC(=O)CCCC1CCCCC1,"{co2h=9, aliphatic_carboxylic_acid=9}"
OC(=O)C1(CC1)C(O)=O,-,R935588,M67084,-,-,"cyclopropane-1,1-dicarboxylic acid",Koerner,charochkina,A5793,-,-,-,2.1,Log unit,25,?C,OC(=O)C1(CC1)C(=O)O,"{co2h=5, aliphatic_carboxylic_acid=5}"
OC(=O)C1CC1C(O)=O,-,R935589,M727871,-,-,"trans-cyclopropane-1,2-dicarboxylic acid",Koerner,charochkina,A5793,-,-,-,3.95,Log unit,25,?C,OC(=O)C1CC1C(=O)O,"{co2h=2, aliphatic_carboxylic_acid=2}"
OC(=O)C1(CCC1)C(O)=O,-,R935590,M75490,-,-,"Cyclobutane-1,1-dicarboxylic acid",Koerner,charochkina,A5793,-,-,-,3.43,Log unit,25,?C,OC(=O)C1(CCC1)C(=O)O,"{co2h=5, aliphatic_carboxylic_acid=5}"
OC(=O)C1(CCC1)C([O-])=O,-,R935591,M75490,-,-,"Cyclobutane-1,1-dicarboxylic acid",Koerner,charochkina,A5793,-,-,-,5.6,Log unit,25,?C,OC(=O)C1(CCC1)C(=O)[O-],"{co2h=8, aliphatic_carboxylic_acid=8}"
OC(=O)C1CCC1C(O)=O,-,R935592,M24671,-,-,"trans-Cyclobutane-1,2-dicarboxylic acid",Koerner,charochkina,A5793,-,-,-,4.24,Log unit,25,?C,OC(=O)C1CCC1C(=O)O,"{co2h=2, aliphatic_carboxylic_acid=2}"
OC(=O)C1CCC1C([O-])=O,-,R935593,M24671,-,-,"trans-Cyclobutane-1,2-dicarboxylic acid",Koerner,charochkina,A5793,-,-,-,5.2,Log unit,25,?C,OC(=O)C1CCC1C(=O)[O-],"{co2h=2, aliphatic_carboxylic_acid=2}"
OC(=O)C1CC(C1)C(O)=O,-,R935594,M1018363,-,-,"trans-cyclobutane-1,3-dicarboxylic acid",Koerner,charochkina,A5793,-,-,-,4.4,Log unit,25,?C,OC(=O)C1CC(C(=O)O)C1,"{co2h=2, aliphatic_carboxylic_acid=2}"
OC(=O)C1CC(C1)C([O-])=O,-,R935595,M1018363,-,-,"trans-cyclobutane-1,3-dicarboxylic acid",Koerner,charochkina,A5793,-,-,-,4.8,Log unit,25,?C,OC(=O)C1CC(C(=O)[O-])C1,"{co2h=2, aliphatic_carboxylic_acid=2}"
OC(=O)C1(CCCC1)C(O)=O,-,R935596,M124373,-,-,"CYCLOPENTANE-1,1-DICARBOXYLIC ACID",Koerner,charochkina,A5793,-,-,-,3.53,Log unit,25,?C,OC(=O)C1(CCCC1)C(=O)O,"{co2h=7, aliphatic_carboxylic_acid=7}"
OC(=O)C1CCCC1C(O)=O,-,R935597,M437,-,-,"trans-cyclopentane-1,2-dicarboxylic acid",Koerner,charochkina,A5793,-,-,-,4.3,Log unit,25,?C,OC(=O)C1CCCC1C(=O)O,"{co2h=2, aliphatic_carboxylic_acid=2}"
OC(=O)C1CCCC1C([O-])=O,-,R935598,M437,-,-,"trans-cyclopentane-1,2-dicarboxylic acid",Koerner,charochkina,A5793,-,-,-,5.5,Log unit,25,?C,OC(=O)C1CCCC1C(=O)[O-],"{co2h=2, aliphatic_carboxylic_acid=2}"
OC(=O)C1CCC(C1)C(O)=O,-,R935599,M28942,-,-,"trans-cyclopentane-1,3-dicarboxylic acid",Koerner,charochkina,A5793,-,-,-,4.66,Log unit,25,?C,OC(=O)C1CCC(C1)C(=O)O,"{co2h=2, aliphatic_carboxylic_acid=2}"
OC(=O)C1CCC(C1)C([O-])=O,-,R935600,M28942,-,-,"trans-cyclopentane-1,3-dicarboxylic acid",Koerner,charochkina,A5793,-,-,-,5.1,Log unit,25,?C,OC(=O)C1CC(C(=O)[O-])CC1,"{co2h=10, aliphatic_carboxylic_acid=10}"
OC(=O)CC1CCCC1C(O)=O,-,R935601,M1018364,-,-,trans-cyclopentane-1-carboxylic acid-2-acetic acid,Koerner,charochkina,A5793,-,-,-,4.7,Log unit,25,?C,OC(=O)C1CCCC1CC(=O)O,"{co2h=2, aliphatic_carboxylic_acid=2}"
OC(=O)CC1(CC(O)=O)CCCC1,-,R935602,M116734,-,-,"cyclopentyl-1,1-diacetic acid",Koerner,charochkina,A5793,-,-,-,4.4,Log unit,25,?C,OC(=O)CC1(CCCC1)CC(=O)O,"{co2h=8, aliphatic_carboxylic_acid=8}"
OC(=O)CC1CCCC1CC(O)=O,-,R935603,M1018365,-,-,"trans-cyclopentyl-1,2-diacetic acid",Koerner,charochkina,A5793,-,-,-,4.73,Log unit,25,?C,OC(=O)CC1CCCC1CC(=O)O,"{co2h=2, aliphatic_carboxylic_acid=2}"
CC1CCC(CC(O)=O)(CC(O)=O)C1,-,R935604,M1018366,-,-,"3-METHYLCYCLOPENTYL-1,1-DIACETIC ACID",Koerner,charochkina,A5793,-,-,-,4.4,Log unit,25,?C,OC(=O)CC1(CCC(C1)C)CC(=O)O,"{co2h=6, aliphatic_carboxylic_acid=6}"
OC(=O)C1(CCCCC1)C(O)=O,-,R935605,M124260,-,-,"cyclohexane-1,1-dicarboxylic acid",Koerner,charochkina,A5793,-,-,-,3.75,Log unit,25,?C,OC(=O)C1(CCCCC1)C(=O)O,"{co2h=6, aliphatic_carboxylic_acid=6}"
OC(=O)C1CCCCC1C(O)=O,-,R935606,M26643,-,-,"trans-Cyclohexane-1,2-dicarboxylic acid",Koerner,charochkina,A5793,-,-,-,4.48,Log unit,25,?C,OC(=O)C1CCCCC1C(=O)O,"{co2h=2, aliphatic_carboxylic_acid=2}"
OC(=O)C1CCCCC1C([O-])=O,-,R935607,M26643,-,-,"trans-Cyclohexane-1,2-dicarboxylic acid",Koerner,charochkina,A5793,-,-,-,5.6,Log unit,25,?C,OC(=O)C1CCCCC1C(=O)[O-],"{co2h=2, aliphatic_carboxylic_acid=2}"
OC(=O)C1CCCC(C1)C(O)=O,-,R935608,M1017980,-,-,"trans-cyclohexane-1,3-dicarboxylic acid",Koerner,charochkina,A5793,-,-,-,4.61,Log unit,25,?C,OC(=O)C1CCCC(C1)C(=O)O,"{co2h=2, aliphatic_carboxylic_acid=2}"
OC(=O)C1CCCC(C1)C([O-])=O,-,R935609,M1017980,-,-,"trans-cyclohexane-1,3-dicarboxylic acid",Koerner,charochkina,A5793,-,-,-,5.4,Log unit,25,?C,OC(=O)C1CCCC(C1)C(=O)[O-],"{co2h=2, aliphatic_carboxylic_acid=2}"
OC(=O)C1CCC(CC1)C(O)=O,-,R935610,M8896,-,-,"trans-Cyclohexane-1,4-dicarboxylic acid",Koerner,charochkina,A5793,-,-,-,4.535,Log unit,25,?C,OC(=O)C1CCC(C(=O)O)CC1,"{co2h=2, aliphatic_carboxylic_acid=2}"
OC(=O)C1=C(CCCC1)C(O)=O,-,R935611,M67333,-,-,"1-Cyclohexene-1,2-dicarboxylic acid",Koerner,charochkina,A5793,-,-,-,4.05,Log unit,25,?C,OC(=O)C1=C(C(=O)O)CCCC1,"{co2h=3, aliphatic_carboxylic_acid=3}"
OC(=O)C1=C(CCCC1)C([O-])=O,-,R935612,M67333,-,-,"1-Cyclohexene-1,2-dicarboxylic acid",Koerner,charochkina,A5793,-,-,-,5.9,Log unit,25,?C,OC(=O)C1=C(C(=O)[O-])CCCC1,"{co2h=7, aliphatic_carboxylic_acid=7}"
OC(=O)C1CCCC=C1C(O)=O,-,R935613,M38745,-,-,"1-cyclohexene-1,6-dicarboxylic acid",Koerner,charochkina,A5793,-,-,-,4.34,Log unit,25,?C,OC(=O)C1=CCCCC1C(=O)O,"{co2h=3, aliphatic_carboxylic_acid=3}"
OC(=O)C1CCCC=C1C([O-])=O,-,R935614,M38745,-,-,"1-cyclohexene-1,6-dicarboxylic acid",Koerner,charochkina,A5793,-,-,-,5.31,Log unit,25,?C,OC(=O)C1CCCC=C1C(=O)[O-],"{co2h=11, aliphatic_carboxylic_acid=11}"
OC(=O)C1CC=CCC1C(O)=O,-,R935615,M57283,-,-,"trans-cyclohexene-4-1,2-dicarboxylic acid",Koerner,charochkina,A5793,-,-,-,4.2,Log unit,25,?C,OC(=O)C1CC=CCC1C(=O)O,"{co2h=2, aliphatic_carboxylic_acid=2}"
OC(=O)C1CC=CCC1C([O-])=O,-,R935616,M57283,-,-,"trans-cyclohexene-4-1,2-dicarboxylic acid",Koerner,charochkina,A5793,-,-,-,5.8,Log unit,25,?C,OC(=O)C1C(C(=O)[O-])CC=CC1,"{co2h=11, aliphatic_carboxylic_acid=11}"
OC(=O)CC1(CC(O)=O)CCCCC1,-,R935617,M74119,-,-,"cyclohexyl-1,1-diacetic acid",Koerner,charochkina,A5793,-,-,-,3.8,Log unit,25,?C,OC(=O)CC1(CCCCC1)CC(=O)O,"{co2h=7, aliphatic_carboxylic_acid=7}"
OC(=O)CC1CCCCC1CC(O)=O,-,R935618,M1018367,-,-,"trans-cyclohexyl-1,2-diacetic acid",Koerner,charochkina,A5793,-,-,-,4.68,Log unit,25,?C,OC(=O)CC1CCCCC1CC(=O)O,"{co2h=2, aliphatic_carboxylic_acid=2}"
CC1CCCCC1(CC(O)=O)CC(O)=O,-,R935619,M1018368,-,-,"2-METHYLCYCLOHEXYL-1,1-DIACETIC ACID",Koerner,charochkina,A5793,-,-,-,3.83,Log unit,25,?C,OC(=O)CC1(CCCCC1C)CC(=O)O,"{co2h=7, aliphatic_carboxylic_acid=7}"
CC1CCCC(CC(O)=O)(CC(O)=O)C1,-,R935620,M1018369,-,-,"3-METHYLCYCLOHEXYL-1,1-DIACETIC ACID",Koerner,charochkina,A5793,-,-,-,3.49,Log unit,25,?C,OC(=O)CC1(CCCC(C1)C)CC(=O)O,"{co2h=7, aliphatic_carboxylic_acid=7}"