"SMILES","CASRN","RECORDID","MOLECULEID","EXTERNALID","N","NAME","NAME","INTRODUCER","MODIFIER","ARTICLEID","PUBMEDID","PAGE","TABLE","pKa (smiles as ob. cond.) {measured}","UNIT {pKa (smiles as ob. cond.)}","pKa (smiles as ob. cond.) {measured, converted}","UNIT {pKa (smiles as ob. cond.)}","Ionizable centre (smiles)","IC group detected","AtomNR of IC","groupsAndICs","IC smiles given","IC group given","Temperature","UNIT {Temperature}","MultiGroupDetection","COMMENTS","INCHI_KEY"
"NC1=CC=NC([O-])=C1","-","R945985","M1106727","-","-","4-amino-2-hydroxypyridine","-","Koerner","charochkina","A5793","-","-","-","13.54","Log unit","13.54","Log unit","n1ccc(N)cc1[O-]","0","","{n=[0], nr2=[4]}","n(ccc1N)c(c1)[O-1]","n","25.0","?C","","-","SBQVQYPJWLJRQT-UHFFFAOYSA"
"NC1=CC=C([O-])N=C1","-","R945986","M1106728","-","-","5-amino-2-hydroxypyridine","-","Koerner","charochkina","A5793","-","-","-","11.65","Log unit","11.65","Log unit","n1cc(ccc1[O-])N","0","","{n=[0], nr2=[4]}","n(cc(c1)N)c(c1)[O-1]","n","25.0","?C","","-","GDOIKKMNCIMDAO-UHFFFAOYSA"
"CCC1=CN=CC=C1N","-","R945987","M124465","-","-","4-AMINO-3-ETHYLPYRIDINE","-","Koerner","charochkina","A5793","-","-","-","9.49","Log unit","9.49","Log unit","n1ccc(N)c(c1)CC","0","","{n=[0], nr2=[4]}","n(ccc1N)cc1CC","n","25.0","?C","","-","ODKNKXQVRUFTPT-UHFFFAOYSA"
"CC(C)C1=CN=CC=C1N","-","R945988","M124466","-","-","4-AMINO-3-ISOPROPYLPYRIDINE","-","Koerner","charochkina","A5793","-","-","-","9.59","Log unit","9.59","Log unit","n1ccc(N)c(c1)C(C)C","0","","{n=[0], nr2=[4]}","n(ccc1N)cc1C(C)C","n","25.0","?C","","-","QCXAZPBETOAZBK-UHFFFAOYSA"
"NC1C[NH2+]CCC1S","-","R945989","M1107274","-","-","3-amino-4-mercaptopyridine","-","Koerner","charochkina","A5793","-","-","-","1.6","Log unit","1.6","Log unit","SC1[CH][CH][NH2+][CH]C1N","0","","{sh=[0], nr2=[7]}","S-c(cc[n+1]1)c(c1)N","sh","25.0","?C","","-","ICOVHHMYQZOGQI-UHFFFAOYSA"
"NC1=CN=CC=C1[S-]","-","R945990","M1106729","-","-","3-amino-4-mercaptopyridine","-","Koerner","charochkina","A5793","-","-","-","9.2","Log unit","9.2","Log unit","n1ccc([S-])c(c1)N","4","","{n=[4], nr2=[7]}","[S-1]-c(ccn1)c(c1)N","n","25.0","?C","","-","MODUNSYPGHJXDP-UHFFFAOYSA"
"COC1=CC=NC(N)=C1","-","R945991","M215875","-","-","2-amino-4-methoxypyridine","-","Koerner","charochkina","A5793","-","-","-","7.62","Log unit","7.62","Log unit","n1ccc(OC)cc1N","0","","{n=[0], nr2=[8]}","n(ccc1OC)c(c1)N","n","25.0","?C","","-","QPHBCOSULYSASF-UHFFFAOYSA"
"COC1=CC=CC(N)=N1","-","R945992","M1106730","-","-","2-amino-6-methoxypyridine","-","Koerner","charochkina","A5793","-","-","-","4.64","Log unit","4.64","Log unit","n1c(cccc1OC)N","0","","{n=[0], nr2=[4]}","n(c(cc1)N)c(c1)OC","n","25.0","?C","","-","DEUALFRBMNMGDS-UHFFFAOYSA"
"COC1=C(N)C=CC=N1","-","R945993","M748937","-","-","3-amino-2-methoxypyridine","-","Koerner","charochkina","A5793","-","-","-","3.35","Log unit","3.35","Log unit","n1cccc(c1OC)N","0","","{n=[0], nr2=[6]}","n(ccc1)c(c1N)OC","n","25.0","?C","","-","YXFAOWYMDGUFIQ-UHFFFAOYSA"
"COC1=CC=NC=C1N","-","R945994","M1106731","-","-","3-amino-4-methoxypyridine","-","Koerner","charochkina","A5793","-","-","-","7.41","Log unit","7.41","Log unit","n1ccc(OC)c(c1)N","0","","{n=[0], nr2=[8]}","n(ccc1OC)cc1N","n","25.0","?C","","-","STWMPIWLSQKHSJ-UHFFFAOYSA"
"COC1=CC(N)=CC=N1","-","R945995","M1106732","-","-","4-amino-2-methoxypyridine","-","Koerner","charochkina","A5793","-","-","-","7.05","Log unit","7.05","Log unit","n1ccc(N)cc1OC","0","","{n=[0], nr2=[4]}","n(ccc1N)c(c1)OC","n","25.0","?C","","-","SVEQHRSELNPKJJ-UHFFFAOYSA"
"COC1=CC=C(N)C=N1","-","R945996","M31362","-","-","5-Amino-2-methoxypyridine","-","Koerner","charochkina","A5793","-","-","-","4.28","Log unit","4.28","Log unit","n1cc(ccc1OC)N","0","","{n=[0], nr2=[4]}","n(cc(c1)N)c(c1)OC","n","25.0","?C","","-","UUVDJIWRSIJEBS-UHFFFAOYSA"
"COC(=O)C1=C(N)N=CC=C1","-","R945997","M751102","-","-","2-amino-3-methoxycarbonylpyridine","-","Koerner","charochkina","A5793","-","-","-","4.78","Log unit","4.78","Log unit","n1cccc(c1N)C(=O)OC","0","","{n=[0], nr2=[5]}","n(ccc1)c(N)c1C(=O)OC","n","25.0","?C","","-","NZZDEODTCXHCRS-UHFFFAOYSA"
"COC(=O)C1=CC=NC(N)=C1","-","R945998","M757657","-","-","2-amino-4-methoxycarbonylpyridine","-","Koerner","charochkina","A5793","-","-","-","5.21","Log unit","5.21","Log unit","n1ccc(C(=O)OC)cc1N","0","","{n=[0], nr2=[10]}","n(ccc1C(=O)OC)c(c1)N","n","25.0","?C","","-","SVWWNEYBEFASMP-UHFFFAOYSA"
"[NH3+]CC1=CC=CC=N1","-","R945999","M12484","-","-","2-aminomethylpyridine","-","Koerner","charochkina","A5793","-","-","-","3.1","Log unit","3.1","Log unit","n1ccccc1C[NH3+]","0","","{n=[0]}","n(ccc1)c(c1)C[N+1]","n","25.0","?C","","-","WOXFMYVTSLAQMO-UHFFFAOYSA"
"NCC1=CC=CC=N1","-","R946000","M12484","-","-","2-aminomethylpyridine","-","Koerner","charochkina","A5793","-","-","-","8.78","Log unit","8.78","Log unit","NCc1ncccc1","7","","{n=[0], nr2=[7]}","n(ccc1)c(c1)CN","nr2","25.0","?C","","-","WOXFMYVTSLAQMO-UHFFFAOYSA"
"CC1=C(N)N=CC=C1","-","R946001","M25447","-","-","2-Amino-3-methylpyridine","-","Koerner","charochkina","A5793","-","-","-","7.24","Log unit","7.24","Log unit","n1cccc(c1N)C","0","","{n=[0], nr2=[5]}","n(ccc1)c(N)c1C","n","25.0","?C","","-","RGDQRXPEZUNWHX-UHFFFAOYSA"
"CC1=CC=NC(N)=C1","-","R946002","M8193","-","-","2-amino-4-methylpyridine","-","Koerner","charochkina","A5793","-","-","-","7.48","Log unit","7.48","Log unit","n1ccc(C)cc1N","0","","{n=[0], nr2=[7]}","n(ccc1C)c(c1)N","n","25.0","?C","","-","ORLGLBZRQYOWNA-UHFFFAOYSA"
"CC1=CC=C(N)N=C1","-","R946003","M1474","-","-","2-AMINO-5-METHYLPYRIDINE","-","Koerner","charochkina","A5793","-","-","-","7.22","Log unit","7.22","Log unit","n1cc(ccc1N)C","0","","{n=[0], nr2=[7]}","n(cc(c1)C)c(c1)N","n","25.0","?C","","-","CMBSSVKZOPZBKW-UHFFFAOYSA"
"CC1=CC=CC(N)=N1","-","R946004","M25821","-","-","2-Amino-6-methylpyridine","-","Koerner","charochkina","A5793","-","-","-","7.41","Log unit","7.41","Log unit","n1c(cccc1C)N","0","","{n=[0], nr2=[4]}","n(c(cc1)N)c(c1)C","n","25.0","?C","","-","QUXLCYFNVNNRBE-UHFFFAOYSA"
"NCC1=CN=CC=C1","-","R946005","M3725","-","-","3-aminomethylpyridine","-","Koerner","charochkina","A5793","-","-","-","8.04","Log unit","8.04","Log unit","NCc1cnccc1","7","","{n=[0], nr2=[7]}","n(ccc1)cc1CN","nr2","25.0","?C","","-","HDOUGSFASVGDCS-UHFFFAOYSA"
"CC1=CN=CC=C1N","-","R946006","M26077","-","-","4-Amino-3-methylpyridine","-","Koerner","charochkina","A5793","-","-","-","9.45","Log unit","9.45","Log unit","n1ccc(N)c(c1)C","0","","{n=[0], nr2=[4]}","n(ccc1N)cc1C","n","25.0","?C","","-","VGJLGPCXUGIXRQ-UHFFFAOYSA"
"CC1=CC=C(CN)C=N1","-","R946007","M1107275","-","-","3-aminomethyl-6-methylpyridine","-","Koerner","charochkina","A5793","-","-","-","8.764999","Log unit","8.764999","Log unit","NCc1cnc(cc1)C","5","","{n=[0], nr2=[5]}","n(cc(c1)CN)c(c1)C","nr2","25.0","?C","","-","NZPFQOXRHLUPRT-UHFFFAOYSA"
"NC1=CC=C(C=C1)C1CCCC[NH2+]1","-","R946008","M1107276","-","-","2-p-aminophenylpyridine","-","Koerner","charochkina","A5793","-","-","-","2.47","Log unit","2.47","Log unit","Nc1ccc(C2[NH2+][CH][CH][CH][CH]2)cc1","10","","{nr2=[10]}","[n+1](ccc1)c(c1)c(ccc2N)cc2","nr2","25.0","?C","","-","KPGZVNSUMRWAHL-UHFFFAOYSA"
"NC1=CC=C(C=C1)C1CC[NH2+]CC1","-","R946009","M1107277","-","-","2-p-aminophenylpyridine","-","Koerner","charochkina","A5793","-","-","-","2.75","Log unit","2.75","Log unit","Nc1ccc(C2[CH][CH][NH2+][CH][CH]2)cc1","8","","{nr2=[8]}","[n+1]1ccc(c2ccc(N)cc2)cc1","nr2","25.0","?C","","-","NRVYHSVBQNFNAX-UHFFFAOYSA"
"CC1=C(N)N=CC(=C1)N(=O)=O","-","R946010","M746708","-","-","2-Amino-3-methyl-5-nitropyridine","-","Koerner","charochkina","A5793","-","-","-","3.58","Log unit","3.58","Log unit","n1cc(cc(c1N)C)N(=O)=O","0","","{n=[0], nr2=[4, 8]}","n(cc(c1)N(=O)=O)c(N)c1C","n","25.0","?C","","-","JLPYUDJJBGYXEZ-UHFFFAOYSA"
"CC1=CC(=C(N)N=C1)N(=O)=O","-","R946011","M729940","-","-","2-amino-5-methyl-3-nitropyridine","-","Koerner","charochkina","A5793","-","-","-","2.98","Log unit","2.98","Log unit","n1cc(cc(c1N)N(=O)=O)C","0","","{n=[0], nr2=[6, 8]}","n(cc(c1)C)c(N)c1N(=O)=O","n","25.0","?C","","-","ZJKGRSJMFDIRPX-UHFFFAOYSA"
"NC1=C(C=CC=N1)N(=O)=O","-","R946012","M73946","-","-","2-Amino-3-nitropyridine","-","Koerner","charochkina","A5793","-","-","-","2.33","Log unit","2.33","Log unit","n1cccc(c1N)N(=O)=O","0","","{n=[0], nr2=[5, 7]}","n(ccc1)c(N)c1N(=O)=O","n","25.0","?C","","-","BPYHGTCRXDWOIQ-UHFFFAOYSA"
"NC1=CC=C(C=N1)N(=O)=O","-","R946013","M29113","-","-","2-Amino-5-nitropyridine","-","Koerner","charochkina","A5793","-","-","-","2.78","Log unit","2.78","Log unit","n1cc(ccc1N)N(=O)=O","0","","{n=[0], nr2=[4, 9]}","n(cc(c1)N(=O)=O)c(c1)N","n","25.0","?C","","-","UGSBCCAHDVCHGI-UHFFFAOYSA"
"NC1=CC=NC=C1N(=O)=O","-","R946014","M109342","-","-","4-Amino-3-nitropyridine","-","Koerner","charochkina","A5793","-","-","-","5.04","Log unit","5.04","Log unit","n1ccc(N)c(c1)N(=O)=O","0","","{n=[0], nr2=[4, 7]}","n(ccc1N)cc1N(=O)=O","n","25.0","?C","","-","IUPPEELMBOPLDJ-UHFFFAOYSA"
"NC1=CC=C(C=C1)C1=CC=CC=N1","-","R946015","M145345","-","-","2-p-aminophenylpyridine","-","Koerner","charochkina","A5793","-","-","-","5.7","Log unit","5.7","Log unit","n1ccccc1c1ccc(N)cc1","0","","{n=[0], nr2=[10]}","n(ccc1)c(c1)c(ccc2N)cc2","n","25.0","?C","","-","BXYRAPNURYRQSP-UHFFFAOYSA"
"NC1=CC=C(C=C1)C1=CC=NC=C1","-","R946016","M1106733","-","-","4-p-aminophenyl-pyridine","-","Koerner","charochkina","A5793","-","-","-","6.26","Log unit","6.26","Log unit","n1ccc(c2ccc(N)cc2)cc1","0","","{n=[0], nr2=[8]}","n(ccc1-c(ccc2N)cc2)cc1","n","25.0","?C","","-","GKVYVZSNXXTOMQ-UHFFFAOYSA"
"CC1=NC(C)=C(C)C(N)=C1C","-","R946017","M1106734","-","-","4-amino-2,3,5,6-tetramethylpyridine","-","Koerner","charochkina","A5793","-","-","-","10.57","Log unit","10.57","Log unit","n1c(c(c(N)c(c1C)C)C)C","0","","{n=[0], nr2=[4]}","n(c(c(c1N)C)C)c(c1C)C","n","25.0","?C","","-","UFNXQFILCHKKPD-UHFFFAOYSA"
"O=C(NC1=CC=CC=N1)C1=CC=CC=C1","-","R946018","M617108","-","-","2-benzamidopyridine","-","Koerner","charochkina","A5793","-","-","-","3.33","Log unit","3.33","Log unit","n1ccccc1NC(=O)c1ccccc1","0","","{n=[0], nr2=[6]}","n(ccc1)c(c1)NC(=O)-c(ccc2)cc2","n","25.0","?C","","-","LZIJKEIPCFEOLH-UHFFFAOYSA"
"O=C(NC1=CN=CC=C1)C1=CC=CC=C1","-","R946019","M1106735","-","-","3-benzamidopyridine","-","Koerner","charochkina","A5793","-","-","-","3.8","Log unit","3.8","Log unit","n1cccc(c1)NC(=O)c1ccccc1","0","","{n=[0], nr2=[6]}","n(ccc1)cc1NC(=O)-c(ccc2)cc2","n","25.0","?C","","-","BBTGWRLIETYEJO-UHFFFAOYSA"
"O=C(NC1=CC=NC=C1)C1=CC=CC=C1","-","R946020","M29999","-","-","4-Benzamidopyridine","-","Koerner","charochkina","A5793","-","-","-","5.32","Log unit","5.32","Log unit","n1ccc(NC(=O)c2ccccc2)cc1","0","","{n=[0], nr2=[4]}","n(ccc1NC(=O)-c(ccc2)cc2)cc1","n","25.0","?C","","-","PNWVOLKZHJEWQU-UHFFFAOYSA"
"C(C1=CC=CC=C1)C1=CC=CC=N1","-","R946021","M8443","-","-","2-Benzylpyridine","-","Koerner","charochkina","A5793","-","-","-","5.13","Log unit","5.13","Log unit","n1ccccc1Cc1ccccc1","0","","{n=[0]}","n(ccc1)c(c1)C-c(ccc2)cc2","n","25.0","?C","","-","PCFUWBOSXMKGIP-UHFFFAOYSA"
"C[NH+](C)CCN(CC1=CC=CC=C1)C1=CC=CC=N1","-","R946022","M11021","-","-","2-[benzyl(2-dimethylaminoethyl)amino]-pyridine","-","Koerner","charochkina","A5793","-","-","-","3.92","Log unit","3.92","Log unit","n1ccccc1N(Cc1ccccc1)CC[NH+](C)C","0","","{n=[0], nr2=[6, 16]}","n(ccc1)c(c1)N(C-c(ccc2)cc2)CC[N+1](C)C","n","25.0","?C","","-","UFLGIAIHIAPJJC-UHFFFAOYSA"
"C(C1=CC=CC=C1)C1=CC=NC=C1","-","R946023","M1826","-","-","4-Benzylpyridine","-","Koerner","charochkina","A5793","-","-","-","5.59","Log unit","5.59","Log unit","n1ccc(Cc2ccccc2)cc1","0","","{n=[0]}","n(ccc1C-c(ccc2)cc2)cc1","n","25.0","?C","","-","DBOLXXRVIFGDTI-UHFFFAOYSA"
"CC1=C(OCC2=CC=CC=C2)C(C)=C(CO)C=N1","-","R946024","M1106736","-","-","3-benzyloxy-5-hydroxymethyl-2,4-dimethylpyridine","-","Koerner","charochkina","A5793","-","-","-","5.52","Log unit","5.52","Log unit","n1c(c(OCc2ccccc2)c(c(c1)CO)C)C","8","","{n=[8], oh=[14]}","c(ccc1CO-c(c(nc2)C)c(c2CO)C)cc1","n","25.0","?C","","-","HWUCMHJWFIJOTF-UHFFFAOYSA"
"C(SC1=CC=CC=N1)C1=CC=CC=C1","-","R946025","M1106737","-","-","2-benzylthiopyridine","-","Koerner","charochkina","A5793","-","-","-","3.23","Log unit","3.23","Log unit","n1ccccc1SCc1ccccc1","0","","{n=[0]}","n(ccc1)c(c1)SC-c(ccc2)cc2","n","25.0","?C","","-","SWFLBDIRSHVBOA-UHFFFAOYSA"
"C(SC1=CC=NC=C1)C1=CC=CC=C1","-","R946026","M361001","-","-","4-benzylthiopyridine","-","Koerner","charochkina","A5793","-","-","-","5.41","Log unit","5.41","Log unit","n1ccc(SCc2ccccc2)cc1","0","","{n=[0]}","n(ccc1SC-c(ccc2)cc2)cc1","n","25.0","?C","","-","WHHDQCXCEKZXHK-UHFFFAOYSA"
"BrC1=NC=CC=C1","-","R946027","M4499","-","-","2-Bromopyridine","-","Koerner","charochkina","A5793","-","-","-","0.8049999","Log unit","0.8049999","Log unit","n1c(Br)cccc1","2","","{n=[2]}","Br-c(ncc1)cc1","n","25.0","?C","","-","IMRWILPUOVGIMU-UHFFFAOYSA"
"NC1=CC=C(O)C2=C1C(=O)C1=CC=CC=C1C2=O","-","R945828","M18938","-","-","Disperse Red 15","-","Koerner","charochkina","A5793","-","-","-","0.78","Log unit","0.78","Log unit","Nc1ccc(O)c2C(=O)c3ccccc3C(=O)c12","1","","{nr2=[1], oh=[5]}","c1(N)ccc(O)c2C(=O)c3ccccc3C(=O)c12","nr2","25.0","?C","","-","AQXYVFBSOOBBQV-UHFFFAOYSA"
"NC1=CC=C(N)C2=C1C(=O)C1=CC=CC=C1C2=O","-","R945829","M19320","-","-","DISPERSE VIOLET 1","-","Koerner","charochkina","A5793","-","-","-","1.28","Log unit","1.28","Log unit","Nc1ccc(N)c2C(=O)c3ccccc3C(=O)c12","1","","{nr2=[1, 5]}","c1(N)ccc(N)c2C(=O)c3ccccc3C(=O)c12","nr2","25.0","?C","true","-","FBMQNRKSAWNXBT-UHFFFAOYSA"
"CNC1=CC=C(NC)C2=C1C(=O)C1=CC=CC=C1C2=O","-","R945830","M26944","-","-","Disperse Blue 14","-","Koerner","charochkina","A5793","-","-","-","1.8","Log unit","1.8","Log unit","N(c1ccc(NC)c2C(=O)c3ccccc3C(=O)c12)C","1","","{nr2=[1, 6]}","c1(NC)ccc(NC)c2C(=O)c3ccccc3C(=O)c12","nr2","25.0","?C","true","-","QOSTVEDABRQTSU-UHFFFAOYSA"
"OCCNC1=CC=C(NCCO)C2=C1C(=O)C1=CC=CC=C1C2=O","-","R945831","M29409","-","-","Disperse Blue 23","-","Koerner","charochkina","A5793","-","-","-","0.97","Log unit","0.97","Log unit","N(c1ccc(NCCO)c2C(=O)c3ccccc3C(=O)c12)CCO","1","","{nr2=[1, 8], oh=[4, 11]}","c1(NCCO)ccc(NCCO)c2C(=O)c3ccccc3C(=O)c12","nr2","25.0","?C","true","-","PAZPNGYXNBABCM-UHFFFAOYSA"
"NN","-","R945832","M7742","-","-","HYDRAZINE","-","Koerner","charochkina","A5793","-","-","-","7.7","Log unit","7.7","Log unit","NN","0","","{nr2=[0, 1]}","NN","nr2","25.0","?C","true","-","OAKJQQAXSVQMHS-UHFFFAOYSA"
"N[NH3+]","-","R945833","M7742","-","-","HYDRAZINE","-","Koerner","charochkina","A5793","-","-","-","-0.9","Log unit","-0.9","Log unit","N[NH3+]","0","","{nr2=[0]}","N[N+1]","nr2","25.0","?C","","-","OAKJQQAXSVQMHS-UHFFFAOYSA"
"CCNNCC","-","R945834","M25478","-","-","N,N'-di-ethylhydrazine","-","Koerner","charochkina","A5793","-","-","-","7.48","Log unit","7.48","Log unit","N(CC)NCC","2","","{nr2=[2, 3]}","CCNNCC","nr2","25.0","?C","true","-","YCBOYOYVDOUXLH-UHFFFAOYSA"
"CNNC","-","R945835","M21465","-","-","N,N'-di-methylhydrazine","-","Koerner","charochkina","A5793","-","-","-","7.32","Log unit","7.32","Log unit","N(C)NC","1","","{nr2=[1, 2]}","CNNC","nr2","25.0","?C","true","-","DIIIISSCIXVANO-UHFFFAOYSA"
"CC(N)=N","-","R945836","M999313","-","-","amidinomethane","-","Koerner","charochkina","A5793","-","-","-","12.25","Log unit","12.25","Log unit","N=C(N)C","0","","{neth=[0], nr2=[2]}","N=C(N)C","neth","25.0","?C","","-","OQLZINXFSUDMHM-UHFFFAOYSA"
"NC(CC(N)=NO)=NO","-","R945837","M1106661","-","-","1,3-diamino-1,3-bishydroxyiminopropane","-","Koerner","charochkina","A5793","-","-","-","4.43","Log unit","4.43","Log unit","C(=NO)(N)CC(=NO)N","1","","{neth=[1, 5], nr2=[0, 8], oh=[3, 7]}","NC(=NO)CC(=NO)N","neth","25.0","?C","true","-","USZCEMAXQGZEEK-UHFFFAOYSA"
"NC(=NO)C(N)=NO","-","R945838","M27120","-","-","1,2-diamino-1,2-bishydroxyiminoethane","-","Koerner","charochkina","A5793","-","-","-","2.6","Log unit","2.6","Log unit","ON=C(N)C(=NO)N","0","","{neth=[0, 4], nr2=[3, 7], oh=[0, 6]}","ON=C(N)C(=NO)N","neth","25.0","?C","true","-","BFXWFQSYMVKOCJ-UHFFFAOYSA"
"NC(CCC(N)=NO)=NO","-","R945839","M655335","-","-","1,4-diamino-1,4-bishydroxyiminobutane","-","Koerner","charochkina","A5793","-","-","-","5.63","Log unit","5.63","Log unit","ON=C(N)CCC(=NO)N","0","","{neth=[0, 6], nr2=[3, 9], oh=[0, 8]}","ON=C(N)CCC(=NO)N","neth","25.0","?C","true","-","LHYIWYMOHCIQRH-UHFFFAOYSA"
"NC(CCC(N)=[NH+]O)=NO","-","R945840","M655335","-","-","1,4-diamino-1,4-bishydroxyiminobutane","-","Koerner","charochkina","A5793","-","-","-","3.3","Log unit","3.3","Log unit","O[NH+]=C(N)CCC(=NO)N","0","","{neth=[0, 6], nr2=[3, 9], oh=[0, 8]}","O[N+1]=C(N)CCC(=NO)N","neth","25.0","?C","true","-","LHYIWYMOHCIQRH-UHFFFAOYSA"
"N=C1CCCC1","-","R945841","M1106662","-","-","cyclopentanimine","-","Koerner","charochkina","A5793","-","-","-","8.95","Log unit","8.95","Log unit","N=C1CCCC1","0","","{neth=[0]}","N=C(CC1)CC1","neth","25.0","?C","","-","HMZHPDZCVINDPO-UHFFFAOYSA"
"N=C1CCCCC1","-","R945842","M1106663","-","-","cyclohexanimine","-","Koerner","charochkina","A5793","-","-","-","9.15","Log unit","9.15","Log unit","N=C1CCCCC1","0","","{neth=[0]}","N=C(CCC1)CC1","neth","25.0","?C","","-","NNGAQKAUYDTUQR-UHFFFAOYSA"
"CN=C1CCCCC1C","-","R945843","M1106664","-","-","C-N-dimethylcyclohexanimine","-","Koerner","charochkina","A5793","-","-","-","9.47","Log unit","9.47","Log unit","C1(=NC)CCCCC1C","6","","{neth=[6]}","C(CCC1C)CC1=NC","neth","25.0","?C","","-","DBKSIFHGBDIFFN-UHFFFAOYSA"
"CC1CCCCC1=N","-","R945844","M1106665","-","-","C-methylcyclohexanimine","-","Koerner","charochkina","A5793","-","-","-","9.38","Log unit","9.38","Log unit","N=C1CCCCC1C","0","","{neth=[0]}","N=C(CCC1)C(C1)C","neth","25.0","?C","","-","ZWWFCBCSHLJYNS-UHFFFAOYSA"
"CN=C1CCCCC1","-","R945845","M1106666","-","-","N-methylcyclohexanimine","-","Koerner","charochkina","A5793","-","-","-","9.43","Log unit","9.43","Log unit","C1(=NC)CCCCC1","3","","{neth=[3]}","C(CCC1=NC)CC1","neth","25.0","?C","","-","FFDQGRWCKILEIP-UHFFFAOYSA"
"CCNC1=CC(CC(C)(C)C1)=NCC","-","R945846","M1106667","-","-","1-ethylamino-3-ethylimino-5,5-dimethylcyclohex-1-ene","-","Koerner","charochkina","A5793","-","-","-","12.13","Log unit","12.13","Log unit","C1(=NCC)C=C(CC(C)(C)C1)NCC","9","","{neth=[9], nr2=[6]}","C(=C(CC1(C)C)NCC)C(C1)=NCC","neth","25.0","?C","","-","MTBJVJDJYWPKIG-UHFFFAOYSA"
"CC(=N)NC1=CC=C(Cl)C=C1","-","R945847","M1106668","-","-","N-acetimido-4-chloroaniline","-","Koerner","charochkina","A5793","-","-","-","9.5","Log unit","9.5","Log unit","C(=N)(Nc1ccc(Cl)cc1)C","6","","{neth=[6], nr2=[5]}","Cl-c(ccc1NC(=N)C)cc1","neth","25.0","?C","","-","FBPHZQBQWZDQGC-UHFFFAOYSA"
"CCOC1=CC=C(NC(C)=NC2=CC=C(OCC)C=C2)C=C1","-","R945848","M18391","-","-","4-ethoxy-N-[1-(p-ethoxyphenylimino)ethyl]aniline","-","Koerner","charochkina","A5793","-","-","-","9.27","Log unit","9.27","Log unit","c1(ccc(cc1)OCC)N=C(Nc1ccc(OCC)cc1)C","2","","{neth=[2], nr2=[6]}","c(cc(c1)N=C(N-c(ccc2OCC)cc2)C)c(c1)OCC","neth","25.0","?C","","-","QXDAEKSDNVPFJG-UHFFFAOYSA"
"ClC1=CC=C(C=NC2=CC=CC=C2)C=C1","-","R945849","M1106669","-","-","N-4-chlorobenzylideneaniline","-","Koerner","charochkina","A5793","-","-","-","2.8","Log unit","2.8","Log unit","C(=Nc1ccccc1)c1ccc(Cl)cc1","5","","{neth=[5]}","Cl-c(ccc1C=Nc(ccc2)cc2)cc1","neth","25.0","?C","","-","CFBVFBIZXQEQHX-UHFFFAOYSA"
"CC(NC1=CC=CC=C1)=NC1=CC=CC=C1","-","R945850","M22651","-","-","N-(1-phenyliminoethyl)aniline","-","Koerner","charochkina","A5793","-","-","-","8.298","Log unit","8.298","Log unit","c1(ccccc1)N=C(Nc1ccccc1)C","3","","{neth=[3], nr2=[6]}","c(ccc1N=C(N-c(ccc2)cc2)C)cc1","neth","25.0","?C","","-","CLWIJUQLAFJNOF-UHFFFAOYSA"
"NC(=N)CC1=CC=CC=C1","-","R945851","M723353","-","-","amidinomethyl-benzzne","-","Koerner","charochkina","A5793","-","-","-","11.87","Log unit","11.87","Log unit","C(=N)(Cc1ccccc1)N","2","","{neth=[2], nr2=[4]}","c1(CC(=N)N)ccccc1","neth","25.0","?C","","-","JTNCEQNHURODLX-UHFFFAOYSA"