Smiles,CASRN,Record ID,Molecule ID,External ID,N,Name,Introducer,Modifer,Article ID,PUBMED ID,PAGE,TABLE,pKa,pKa Unit,Temperature,Temperature Unit,Ionizable center smiles,IC group
NC1CC2=CC=CC=C2C1O,-,R945600,M115732,-,-,2-amino-3-hydroxyindan,Koerner,charochkina,A5793,-,-,-,8.13,Log unit,25,?C,NC1Cc2ccccc2C1O,10
NC1=CC=CC2=CC=CC=C12,-,R945601,M10056,-,-,1-Aminonaphthalene,Koerner,charochkina,A5793,-,-,-,3.94,Log unit,25,?C,Nc1c2ccccc2ccc1,6
NC1=CC2=CC=CC=C2C=C1,-,R945602,M4877,-,-,2-amino-naphthalene,Koerner,charochkina,A5793,-,-,-,4.15,Log unit,25,?C,Nc1cc2ccccc2cc1,6
NC1=C2C=CC=CC2=CC(Br)=C1,-,R945603,M1107155,-,-,1-amino-3-bromo-naphthalene,Koerner,charochkina,A5793,-,-,-,2.67,Log unit,25,?C,Nc1cc(Br)cc2c1cccc2,4
NC1=CC=C(Br)C2=C1C=CC=C2,-,R945604,M71011,-,-,1-Amino-4-bromonaphthalene,Koerner,charochkina,A5793,-,-,-,3.21,Log unit,25,?C,Nc1ccc(Br)c2ccccc12,5
NC1=CC2=C(C=CC=C2)C(Br)=C1,-,R945605,M1107156,-,-,2-amino-4-bromo-naphthalene,Koerner,charochkina,A5793,-,-,-,3.4,Log unit,25,?C,Nc1cc(Br)c2ccccc2c1,5
NC1=C2C=CC=CC2=CC(Cl)=C1,-,R945606,M1107157,-,-,1-amino-3-chloronaphthalene,Koerner,charochkina,A5793,-,-,-,2.69,Log unit,25,?C,Nc1cc(Cl)cc2c1cccc2,4
NC1=CC=CC2=C1C=CC=C2Cl,-,R945607,M1107158,-,-,1-amino-5-chloro-naphthalene,Koerner,charochkina,A5793,-,-,-,3.34,Log unit,25,?C,Nc1c2c(c(Cl)ccc2)ccc1,11
NC1=CC=CC2=CC(Cl)=CC=C12,-,R945608,M1107159,-,-,1-amino-6-chloronaphthalene,Koerner,charochkina,A5793,-,-,-,3.48,Log unit,25,?C,Nc1c2ccc(Cl)cc2ccc1,7
NC1=CC=CC2=CC=C(Cl)C=C12,-,R945609,M1107160,-,-,1-amino-7-chloronaphthalene,Koerner,charochkina,A5793,-,-,-,3.48,Log unit,25,?C,Nc1c2cc(Cl)ccc2ccc1,11
NC1=CC2=C(C=CC=C2)C(Cl)=C1,-,R945610,M1107161,-,-,2-amino-4-chloro-naphthalene,Koerner,charochkina,A5793,-,-,-,3.38,Log unit,25,?C,Nc1cc(Cl)c2ccccc2c1,5
NC1=CC2=CC(Cl)=CC=C2C=C1,-,R945611,M1107162,-,-,2-amino-7-chloro-naphthalene,Koerner,charochkina,A5793,-,-,-,3.71,Log unit,25,?C,Nc1cc2cc(Cl)ccc2cc1,11
NC1=CC(=CC2=CC=CC=C12)C#N,-,R945612,M1107163,-,-,1-amino-3-cyanonaphthalene,Koerner,charochkina,A5793,-,-,-,2.26,Log unit,25,?C,Nc1c2ccccc2cc(c1)C#N,6
NC1=CC2=CC=CC=C2C(=C1)C#N,-,R945613,M1107164,-,-,2-amino-4-cyano-naphthalene,Koerner,charochkina,A5793,-,-,-,2.66,Log unit,25,?C,Nc1cc2ccccc2c(c1)C#N,12
NC1=CC(O)=C(O)C2=CC=CC=C12,-,R945614,M1107165,-,-,"1-amino-3,4-dihydroxynaphthalene",Koerner,charochkina,A5793,-,-,-,4.41,Log unit,25,?C,Nc1c2ccccc2c(O)c(O)c1,12
NC1=CC(O)=C(O)C2=CC=CC=C12,-,R945615,M1107165,-,-,"1-amino-3,4-dihydroxynaphthalene",Koerner,charochkina,A5793,-,-,-,9.32,Log unit,25,?C,Oc1c2ccccc2c(cc1O)N,5
NC1=C(O)C2=CC=CC=C2C(O)=C1,-,R945616,M1107166,-,-,"2-amino-1,4-dihydroxynaphthalene",Koerner,charochkina,A5793,-,-,-,4.04,Log unit,25,?C,Nc1c(c2ccccc2c(c1)O)O,7
NC1=C(O)C2=CC=CC=C2C([O-])=C1,-,R945617,M1107166,-,-,"2-amino-1,4-dihydroxynaphthalene",Koerner,charochkina,A5793,-,-,-,11.27,Log unit,25,?C,Oc1c2ccccc2c(cc1N)[O-],5
NC1=CC(O)=CC2=CC=CC=C12,-,R945618,M1050442,-,-,1-amino-3-hydroxy-naphthalene,Koerner,charochkina,A5793,-,-,-,3.3,Log unit,25,?C,Nc1c2ccccc2cc(c1)O,6
NC1=CC=CC2=C(O)C=CC=C12,-,R945620,M64959,-,-,1-Amino-5-hydroxynaphthalene,Koerner,charochkina,A5793,-,-,-,3.96,Log unit,25,?C,Nc1c2cccc(O)c2ccc1,11
NC1=C2C=CC(O)=CC2=CC=C1,-,R945621,M17830,-,-,1-amino-6-hydroxynaphthalene,Koerner,charochkina,A5793,-,-,-,3.97,Log unit,25,?C,Nc1cccc2c1ccc(c2)O,3
NC1=C2C=C(O)C=CC2=CC=C1,-,R945622,M18977,-,-,1-Amino-7-hydroxynaphthalene,Koerner,charochkina,A5793,-,-,-,4.2,Log unit,25,?C,Nc1cccc2c1cc(O)cc2,3
NC1=CC2=CC=CC(O)=C2C=C1,-,R945623,M81378,-,-,2-amino-4-hydroxy-naphthalene,Koerner,charochkina,A5793,-,-,-,3.45,Log unit,25,?C,Nc1cc2cccc(O)c2cc1,11
NC1=CC2=CC=CC(O)=C2C=C1,-,R945624,M81378,-,-,2-amino-5-hydroxy-naphthalene,Koerner,charochkina,A5793,-,-,-,9.84,Log unit,25,?C,Oc1cccc2c1ccc(c2)N,3
NC1=CC2=CC=CC(O)=C2C=C1,-,R945625,M81378,-,-,2-amino-5-hydroxy-naphthalene,Koerner,charochkina,A5793,-,-,-,4.07,Log unit,25,?C,Nc1cc2cccc(O)c2cc1,11
NC1=CC2=C(C=C1)C=CC(O)=C2,-,R945626,M65141,-,-,2-amino-7-hydroxy-naphthalene,Koerner,charochkina,A5793,-,-,-,4.25,Log unit,25,?C,Nc1cc2cc(ccc2cc1)O,2
NC1=CC(=CC2=CC(=CC(O)=C12)S([O-])(=O)=O)S([O-])(=O)=O,-,R945627,M17938,-,-,"1-amino-8-hydroxy-3,6-disulphonaphthalene",Koerner,charochkina,A5793,-,-,-,3.627,Log unit,25,?C,Nc1c2c(cc(S(=O)(=O)[O-])cc2cc(c1)S(=O)(=O)[O-])O,11
NC1=CC=CC=C1N(=O)=O,-,R945426,M2166,-,-,2-nitroaniline,Koerner,charochkina,A5793,-,-,-,-0.255,Log unit,25,?C,N(=O)(=O)c1ccccc1N,4
NC1=CC(=CC=C1)N(=O)=O,-,R945427,M12971,-,-,3-NITRO-ANILINE,Koerner,charochkina,A5793,-,-,-,2.468,Log unit,25,?C,Nc1cccc(c1)N(=O)=O,4
NC1=CC=C(C=C1)N(=O)=O,-,R945428,M10872,-,-,4-NITRO-ANILINE,Koerner,charochkina,A5793,-,-,-,1.02,Log unit,25,?C,N(=O)(=O)c1ccc(cc1)N,4
NC1=CC=C(CC2=CC=C(C=C2)N(=O)=O)C=C1,-,R945429,M1107109,-,-,4-(p-nitro)benzylaniline,Koerner,charochkina,A5793,-,-,-,4.45,Log unit,25,?C,N(=O)(=O)c1ccc(Cc2ccc(cc2)N)cc1,9
O=N(=O)C1=CC=C(NC2=CC=C(C=C2)N(=O)=O)C=C1,-,R945430,M70254,-,-,4-nitro-N-(4-nitro)phenylaniline,Koerner,charochkina,A5793,-,-,-,-6.2,Log unit,25,?C,N(=O)(=O)c1ccc(Nc2ccc(N(=O)=O)cc2)cc1,1
O=N(=O)C1=CC=C(NC2=CC=CC=C2)C=C1,-,R945431,M13321,-,-,N-(4-nitro)phenylaniline,Koerner,charochkina,A5793,-,-,-,-2.35,Log unit,25,?C,N(c1ccccc1)c1ccc(N(=O)=O)cc1,4
NC1=CC=C(C=C1N(=O)=O)C1=CC=CC=C1,-,R945432,M73738,-,-,2-Nitro-4-phenylaniline,Koerner,charochkina,A5793,-,-,-,-0.82,Log unit,25,?C,Nc1ccc(c2ccccc2)cc1N(=O)=O,8
NC1=CC=C(SC2=CC=C(C=C2)N(=O)=O)C=C1,-,R945433,M18373,-,-,4-(p-nitro)phenylthioaniline,Koerner,charochkina,A5793,-,-,-,2.99,Log unit,25,?C,Nc1ccc(cc1)Sc1ccc(N(=O)=O)cc1,4
NC1=C(C=C(C=C1)C(F)(F)F)N(=O)=O,-,R945434,M66285,-,-,2-Nitro-4-trifluoromethylaniline,Koerner,charochkina,A5793,-,-,-,-2.28,Log unit,25,?C,Nc1ccc(cc1N(=O)=O)C(F)(F)F,9
NC1=CC(=CC(=C1)C(F)(F)F)N(=O)=O,-,R945435,M1107110,-,-,3-nitro-5-trifluoromethylaniline,Koerner,charochkina,A5793,-,-,-,0.82,Log unit,25,?C,Nc1cc(cc(c1)C(F)(F)F)N(=O)=O,8
NC1=CC(=C(C=C1)N(=O)=O)C(F)(F)F,-,R945436,M66256,-,-,4-Nitro-3-trifluoromethylaniline,Koerner,charochkina,A5793,-,-,-,-0.05,Log unit,25,?C,N(=O)(=O)c1ccc(cc1C(F)(F)F)N,3
CCCN(CCC)C1=CC=C(C=C1)N=O,-,R945437,M1107111,-,-,"4-nitroso-N,N-di-n-propylaniline",Koerner,charochkina,A5793,-,-,-,4.17,Log unit,25,?C,N(c1ccc(N=O)cc1)(CCC)CCC,6
NC1=C(F)C(F)=C(F)C(F)=C1F,-,R945438,M7482,-,-,"1,2,3,4,5-pentafluoroaniline",Koerner,charochkina,A5793,-,-,-,-0.28,Log unit,25,?C,Nc1c(c(c(F)c(F)c1F)F)F,7
NC1=CC(OC(F)(F)C(F)(F)F)=CC=C1,-,R945439,M1107112,-,-,3-pentafluoroethoxyaniline,Koerner,charochkina,A5793,-,-,-,3.24,Log unit,25,?C,Nc1cccc(OC(F)(F)C(F)(F)F)c1,14
NC1=CC=C(OC(F)(F)C(F)(F)F)C=C1,-,R945440,M1107113,-,-,4-pentafluoroethoxyaniline,Koerner,charochkina,A5793,-,-,-,3.78,Log unit,25,?C,Nc1ccc(cc1)OC(F)(F)C(F)(F)F,14
CCC(C)(C)NC1=CC=CC=C1,-,R945441,M1107114,-,-,N-t-pentylaniline,Koerner,charochkina,A5793,-,-,-,6.75,Log unit,25,?C,N(c1ccccc1)C(C)(C)CC,4
N(C1=CC=CC=C1)C1=CC=CC=C1,-,R945442,M2076,-,-,N-Phenylaniline,Koerner,charochkina,A5793,-,-,-,0.78,Log unit,25,?C,N(c1ccccc1)c1ccccc1,4
NC1=CC=CC=C1SC1=CC=CC=C1,-,R945443,M1107115,-,-,2-phenylthioaniline,Koerner,charochkina,A5793,-,-,-,2.5,Log unit,25,?C,Nc1c(Sc2ccccc2)cccc1,13
NC1=CC=C(SC2=CC=CC=C2)C=C1,-,R945444,M108472,-,-,4-phenylthioaniline,Koerner,charochkina,A5793,-,-,-,3.8,Log unit,25,?C,Nc1ccc(Sc2ccccc2)cc1,11
CCCOC(=O)C1=CC=C(N)C=C1,-,R945445,M7167,-,-,4-propoxycarbonylaniline,Koerner,charochkina,A5793,-,-,-,2.49,Log unit,25,?C,Nc1ccc(cc1)C(=O)OCCC,12
CCCNC1=CC=CC=C1,-,R945446,M1274,-,-,N-n-Propylaniline,Koerner,charochkina,A5793,-,-,-,4.8,Log unit,25,?C,N(c1ccccc1)CCC,4
CCCC1=CC=CC=C1N,-,R945447,M12379,-,-,2-n-propylaniline,Koerner,charochkina,A5793,-,-,-,4.36,Log unit,25,?C,Nc1ccccc1CCC,9
NC1=CC(OC(F)(F)C(F)F)=CC=C1,-,R945448,M67878,-,-,"3-(1,1,2,2-tetrafluoro)ethoxyaniline",Koerner,charochkina,A5793,-,-,-,3.38,Log unit,25,?C,Nc1cccc(OC(F)(F)C(F)F)c1,13
NC1=CC=C(OC(F)(F)C(F)F)C=C1,-,R945449,M1107116,-,-,"4-(1,1,2,2-tetrafluoro)ethoxyaniline",Koerner,charochkina,A5793,-,-,-,3.98,Log unit,25,?C,Nc1ccc(cc1)OC(F)(F)C(F)F,13
NC1=CC(SC(F)(F)C(F)F)=CC=C1,-,R945450,M1107117,-,-,"3-(1,1,2,2-tetrafluoro)ethylthioaniline",Koerner,charochkina,A5793,-,-,-,3.39,Log unit,25,?C,Nc1cc(SC(F)(F)C(F)F)ccc1,13
NC1=CC=C(SC(F)(F)C(F)F)C=C1,-,R945451,M1107118,-,-,"4-(1,1,2,2-tetrafluoro)ethylthioaniline",Koerner,charochkina,A5793,-,-,-,2.87,Log unit,25,?C,Nc1ccc(SC(F)(F)C(F)F)cc1,11
CN(C)C1=C(C)C=CC=C1C,-,R945452,M23590,-,-,"N,N,2,6-Tetramethylaniline",Koerner,charochkina,A5793,-,-,-,5.56,Log unit,25,?C,N(c1c(cccc1C)C)(C)C,5
CC1=CC(C)=C(C)C(N)=C1C,-,R945453,M1107119,-,-,"2,3,5,6-tetramethylaniline",Koerner,charochkina,A5793,-,-,-,4.3,Log unit,25,?C,Nc1c(c(cc(c1C)C)C)C,4
CC1=C(C)C(=C(C)C(C)=C1N)N(=O)=O,-,R945454,M32800,-,-,"2,3,5,6-TETRAMETHYL-4-NITROANILINE",Koerner,charochkina,A5793,-,-,-,2.36,Log unit,25,?C,N(=O)(=O)c1c(c(c(N)c(c1C)C)C)C,1
NC1=CC=C(SC#N)C=C1,-,R945455,M27669,-,-,4-thiocyanatoaniline,Koerner,charochkina,A5793,-,-,-,2.9,Log unit,25,?C,Nc1ccc(SC#N)cc1,7
NC1=C(Cl)C=C(Cl)C(Cl)=C1,-,R945456,M3513,-,-,"2,4,5-Trichloroaniline",Koerner,charochkina,A5793,-,-,-,1.09,Log unit,25,?C,Nc1c(cc(Cl)c(Cl)c1)Cl,6
NC1=C(Cl)C=C(Cl)C=C1Cl,-,R945457,M7159,-,-,"2,4,6-trichloroaniline",Koerner,charochkina,A5793,-,-,-,-0.03,Log unit,25,?C,Nc1c(cc(Cl)cc1Cl)Cl,6
NC1=CC=CC=C1OC(F)(F)F,-,R945458,M69690,-,-,2-trifluoromethoxyaniline,Koerner,charochkina,A5793,-,-,-,2.44,Log unit,25,?C,Nc1ccccc1OC(F)(F)F,11
NC1=CC(OC(F)(F)F)=CC=C1,-,R945459,M69689,-,-,3-trifluoromethoxyaniline,Koerner,charochkina,A5793,-,-,-,3.25,Log unit,25,?C,Nc1cccc(c1)OC(F)(F)F,4
NC1=CC=C(OC(F)(F)F)C=C1,-,R945460,M66442,-,-,4-trifluoromethoxyaniline,Koerner,charochkina,A5793,-,-,-,3.82,Log unit,25,?C,Nc1ccc(cc1)OC(F)(F)F,11
NC1=CC(=CC=C1)C(F)(F)F,-,R945461,M11729,-,-,3-trifluoromethyl-aniline,Koerner,charochkina,A5793,-,-,-,3.49,Log unit,25,?C,Nc1cccc(C(F)(F)F)c1,10
NC1=CC=C(C=C1)C(F)(F)F,-,R945462,M7825,-,-,4-trifluoromethyl-aniline,Koerner,charochkina,A5793,-,-,-,2.45,Log unit,25,?C,Nc1ccc(cc1)C(F)(F)F,10
NC1=CC(=CC=C1)S(=O)(=O)C(F)(F)F,-,R945463,M1107120,-,-,3-trifluoromethylsulphonylaniline,Koerner,charochkina,A5793,-,-,-,1.79,Log unit,25,?C,Nc1cc(S(=O)(=O)C(F)(F)F)ccc1,13
NC1=CC=C(C=C1)S(=O)(=O)C(F)(F)F,-,R945464,M1107121,-,-,4-trifluoromethylsulphonylaniline,Koerner,charochkina,A5793,-,-,-,-0.01,Log unit,25,?C,Nc1ccc(S(=O)(=O)C(F)(F)F)cc1,11
NC1=CC(SC(F)(F)F)=CC=C1,-,R945465,M66195,-,-,3-trifluoromethylthioaniline,Koerner,charochkina,A5793,-,-,-,3.3,Log unit,25,?C,Nc1cc(SC(F)(F)F)ccc1,11
CN(C)C1=CC=CC=C1C,-,R945466,M4926,-,-,"N,N,2-TRIMETHYLANILINE",Koerner,charochkina,A5793,-,-,-,5.895,Log unit,25,?C,N(c1ccccc1C)(C)C,4
CN(C)C1=CC=CC(C)=C1,-,R945467,M1703,-,-,"N,N,3-Trimethylaniline",Koerner,charochkina,A5793,-,-,-,5.23,Log unit,25,?C,N(c1cccc(c1)C)(C)C,7
CN(C)C1=CC=C(C)C=C1,-,R945468,M3619,-,-,"N,N,4-TRIMETHYLANILINE",Koerner,charochkina,A5793,-,-,-,5.6195,Log unit,25,?C,N(c1ccc(cc1)C)(C)C,4
CNC1=C(C)C=CC=C1C,-,R945469,M1107122,-,-,"N,2,6-trimethylaniline",Koerner,charochkina,A5793,-,-,-,5.3,Log unit,25,?C,N(c1c(cccc1C)C)C,5
CC1=CC(C)=C(N)C(C)=C1,-,R945470,M5942,-,-,"2,4,6-Trimethylaniline",Koerner,charochkina,A5793,-,-,-,4.375,Log unit,25,?C,Nc1c(cc(cc1C)C)C,8
CC1=CC(N)=CC(C)=C1C,-,R945471,M69909,-,-,"3,4,5-trimethyl-aniline",Koerner,charochkina,A5793,-,-,-,5.12,Log unit,25,?C,Nc1cc(c(c(c1)C)C)C,5
NC1=CC=C(C=C1)N=NC1=CC=CC=C1,-,R945472,M17217,-,-,4-Aminoazobenzene,Koerner,charochkina,A5793,-,-,-,3.07,Log unit,25,?C,Nc1ccc(N=Nc2ccccc2)cc1,10
CC1=CC(=CC=C1)N=NC1=CC=C(N)C=C1,-,R945473,M714393,-,-,4-amino-3'-methylazobenzene,Koerner,charochkina,A5793,-,-,-,2.88,Log unit,25,?C,Nc1ccc(N=Nc2cccc(c2)C)cc1,10
CC1=CC=C(C=C1)N=NC1=CC=C(N)C=C1,-,R945474,M987005,-,-,4-amino-4'-methylazobenzene,Koerner,charochkina,A5793,-,-,-,3.04,Log unit,25,?C,Nc1ccc(cc1)N=Nc1ccc(C)cc1,15
CN(C)C1=CC=C(C=C1)N=NC1=CC=C(C=C1)C(C)(C)C,-,R945475,M1107123,-,-,4-t-butyl-4'-dimethylaminoazobenzene,Koerner,charochkina,A5793,-,-,-,2.27,Log unit,25,?C,N(c1ccc(N=Nc2ccc(cc2)C(C)(C)C)cc1)(C)C,16
CN(C)C1=CC=C(C=C1)N=NC1=CC=CC(=C1)C(O)=O,-,R945476,M35072,-,-,3-carboxy-4'-dimethylaminoazobenzene,Koerner,charochkina,A5793,-,-,-,2.64,Log unit,25,?C,N(c1ccc(N=Nc2cccc(c2)C(=O)O)cc1)(C)C,15
CN(C)C1=CC=C(C=C1)N=NC1=CC=C(C=C1)C([O-])=O,-,R945477,M31020,-,-,4-carboxy-4'-dimethylaminoazobenzene,Koerner,charochkina,A5793,-,-,-,2.35,Log unit,25,?C,N(c1ccc(cc1)N=Nc1ccc(C(=O)[O-])cc1)(C)C,17
CN(C)C1=CC=C(C=C1)N=NC1=CC=C(Cl)C=C1,-,R945478,M26975,-,-,4-chloro-4'-dimethylaminoazobenzene,Koerner,charochkina,A5793,-,-,-,2,Log unit,25,?C,N(c1ccc(N=Nc2ccc(Cl)cc2)cc1)(C)C,11
CN(C)C1=CC=C(C=C1)N=NC1=CC=CC=C1,-,R945479,M17219,-,-,4-dimethylaminoazobenzene,Koerner,charochkina,A5793,-,-,-,3.226,Log unit,25,?C,N(c1ccc(N=Nc2ccccc2)cc1)(C)C,10
CN(C)C1=CC=C(C=C1)N=NC1=CC=C(O)C=C1,-,R945480,M1107124,-,-,4-dimethylamino-4'-hydroxyazobenzene,Koerner,charochkina,A5793,-,-,-,3.4,Log unit,25,?C,N(c1ccc(N=Nc2ccc(O)cc2)cc1)(C)C,11
CN(C)C1=CC=C(C=C1)N=NC1=CC=C(O)C=C1,-,R945481,M1107124,-,-,4-dimethylamino-4'-hydroxyazobenzene,Koerner,charochkina,A5793,-,-,-,8.6,Log unit,25,?C,Oc1ccc(N=Nc2ccc(N(C)C)cc2)cc1,0
CN(C)C1=CC=C(C=C1)N=NC1=CC=C(I)C=C1,-,R945482,M1107125,-,-,4-dimethylamino-4'-iodoazobenzene,Koerner,charochkina,A5793,-,-,-,2.06,Log unit,25,?C,N(c1ccc(N=Nc2ccc(I)cc2)cc1)(C)C,11
COC(=O)C1=CC=C(C=C1)N=NC1=CC=C(C=C1)N(C)C,-,R945483,M1107126,-,-,4-dimethylamino-4'-methoxycarbonylazobenzene,Koerner,charochkina,A5793,-,-,-,2.6,Log unit,25,?C,N(c1ccc(cc1)N=Nc1ccc(C(=O)OC)cc1)(C)C,18
CN(C)C1=CC=C(C=C1)N=NC1=CC=C(C)C=C1,-,R945484,M748193,-,-,4-dimethylamino-4'-methyl-azobenzene,Koerner,charochkina,A5793,-,-,-,2.31,Log unit,25,?C,N(c1ccc(N=Nc2ccc(cc2)C)cc1)(C)C,10
CN(C)C1=CC=C(C=C1)N=NC1=CC=C(C=C1)N(=O)=O,-,R945485,M26974,-,-,4-dimethylamino-4'-nitroazobenzene,Koerner,charochkina,A5793,-,-,-,1.81,Log unit,25,?C,N(=O)(=O)c1ccc(N=Nc2ccc(N(C)C)cc2)cc1,1
CNC1=CC=C(C=C1SC)N=N,-,R945486,M1107127,-,-,4-methylamino-3-methylmercaptoazobenzene,Koerner,charochkina,A5793,-,-,-,2.03,Log unit,25,?C,N(c1c(SC)cc(cc1)N=N)C,10
CNC1=C(C)C=C(C=C1)N=N,-,R945487,M1107128,-,-,3-methyl-4-methylaminoazobenzene,Koerner,charochkina,A5793,-,-,-,2.94,Log unit,25,?C,N(c1ccc(cc1C)N=N)C,5
CC(N)CCC1=CC=CC=C1,-,R945488,M35558,-,-,(3-amino)butylbenzene,Koerner,charochkina,A5793,-,-,-,9.79,Log unit,25,?C,NC(CCc1ccccc1)C,7
NCCCCC1=CC=CC=C1,-,R945489,M134,-,-,(4-amino)butylbenzene,Koerner,charochkina,A5793,-,-,-,10.36,Log unit,25,?C,NCCCCc1ccccc1,8
CC(N)C1=CC=CC=C1,-,R945490,M9951,-,-,(1-aminoethyl)benzene,Koerner,charochkina,A5793,-,-,-,9.35,Log unit,25,?C,NC(c1ccccc1)C,5
NCCC1=CC=CC=C1,-,R945491,M764,-,-,(2-Aminoethyl)benzene,Koerner,charochkina,A5793,-,-,-,9.835,Log unit,25,?C,NCCc1ccccc1,6
NCCC1=CC=C([O-])C(O)=C1,-,R945492,M12068,-,-,"1-(2-amino)ethyl-3,4-dihydroxybenzene",Koerner,charochkina,A5793,-,-,-,10.63,Log unit,25,?C,NCCc1ccc([O-])c(O)c1,7
NCCC1=CC=C(O)C=C1,-,R945493,M2404,-,-,1-(2-amino)ethyl-4-hydroxybenzene,Koerner,charochkina,A5793,-,-,-,9.7,Log unit,25,?C,Oc1ccc(CCN)cc1,0
NCCC1=CC=C([O-])C=C1,-,R945494,M2404,-,-,1-(2-amino)ethyl-4-hydroxybenzene,Koerner,charochkina,A5793,-,-,-,10.9,Log unit,25,?C,NCCc1ccc([O-])cc1,7
CC(CN)C1=CC=CC=C1,-,R945495,M565,-,-,(2-amino-1-hydroxy)ethylbenzene,Koerner,charochkina,A5793,-,-,-,8.9,Log unit,25,?C,NCC(c1ccccc1)C,7
NCC(O)C1=CC=C(O)C(O)=C1,-,R945496,M16999,-,-,"1-(2-amino-1-hydroxy)ethyl-3,4-dihydroxybenzene",Koerner,charochkina,A5793,-,-,-,8.9,Log unit,25,?C,NCC(c1ccc(O)c(O)c1)O,8
NCC(O)C1=CC=CC(O)=C1,-,R945497,M21392,-,-,1-(2-amino-1-hydroxy)ethyl-3-hydroxybenzene,Koerner,charochkina,A5793,-,-,-,9.5,Log unit,25,?C,NCC(c1cccc(O)c1)O,7
NCC(O)C1=CC=C(O)C=C1,-,R945498,M15373,-,-,1-(2-amino-1-hydroxy)ethyl-4-hydroxybenzene,Koerner,charochkina,A5793,-,-,-,9.549999,Log unit,25,?C,NCC(c1ccc(O)cc1)O,8
CC(N)C(O)C1=CC=CC=C1,-,R945499,M2063,-,-,(2-amino-1-hydroxy)propylbenzene,Koerner,charochkina,A5793,-,-,-,9.44,Log unit,25,?C,NC(C(c1ccccc1)O)C,7
CC(CN)C1=CC=CC=C1,-,R945500,M565,-,-,(2-amino)isopropylbenzene,Koerner,charochkina,A5793,-,-,-,10.325,Log unit,25,?C,NCC(c1ccccc1)C,7
CC(CCN)C1=CC=CC=C1,-,R945501,M86362,-,-,(2-aminomethyl)isopropylbenzene,Koerner,charochkina,A5793,-,-,-,10.08,Log unit,25,?C,NCCC(c1ccccc1)C,8
NCCCCCC1=CC=CC=C1,-,R945502,M61667,-,-,(5-amino)pentylbenzene,Koerner,charochkina,A5793,-,-,-,10.44,Log unit,25,?C,NCCCCCc1ccccc1,9
CC(N)CCCC1=CC=C(O)C=C1,-,R945503,M1107129,-,-,1-(4-amino)pentyl-4-hydroxybenzene,Koerner,charochkina,A5793,-,-,-,9.4,Log unit,25,?C,NC(CCCc1ccc(O)cc1)C,9
CC(N)CC1=CC=CC=C1,-,R945504,M5939,-,-,(2-amino)propylbenzene,Koerner,charochkina,A5793,-,-,-,10.08,Log unit,25,?C,NC(Cc1ccccc1)C,6
NCCCC1=CC=CC=C1,-,R945505,M6570,-,-,(3-amino)propylbenzene,Koerner,charochkina,A5793,-,-,-,10.16,Log unit,25,?C,NCCCc1ccccc1,7
CC(N)CC1=CC=C(O)C(O)=C1,-,R945506,M56242,-,-,"1-(2-amino)propyl-3,4-dimethoxybenzene",Koerner,charochkina,A5793,-,-,-,9.6,Log unit,25,?C,NC(Cc1ccc(O)c(O)c1)C,7
COC1=CC=C(CC(C)N)C=C1,-,R945507,M15383,-,-,1-(2-amino)propyl-4-methoxybenzene,Koerner,charochkina,A5793,-,-,-,9.53,Log unit,25,?C,NC(Cc1ccc(cc1)OC)C,6
CC(N)CC1=CC=C2OCOC2=C1,-,R945508,M14580,-,-,"1-(2-amino)propyl-3,4-methylenedioxybenzene",Koerner,charochkina,A5793,-,-,-,9.67,Log unit,25,?C,NC(Cc1ccc2OCOc2c1)C,9
CCC(CN(C)C)(CN(C)C)OC(=O)C1=CC=CC=C1,-,R945509,M22986,-,-,[1-(bisdimethylaminomethyl)propoxycarbonyl]benzene,Koerner,charochkina,A5793,-,-,-,8.85,Log unit,25,?C,N(CC(OC(=O)c1ccccc1)(CC)CN(C)C)(C)C,11
CCN(CC)CCOC(=O)C1=CC=C(Br)C=C1,-,R945510,M1107130,-,-,1-bromo-4-diethylaminoethoxycarbonylbenzene,Koerner,charochkina,A5793,-,-,-,8.12,Log unit,25,?C,N(CCOC(=O)c1ccc(Br)cc1)(CC)CC,10
CCCCOC1=CC(=CC=C1)C(=O)OCCN(CC)CC,-,R945511,M1107131,-,-,1-n-butoxy-3-diethylaminoethoxycarbonylbenzene,Koerner,charochkina,A5793,-,-,-,8.11,Log unit,25,?C,N(CCOC(=O)c1cccc(c1)OCCCC)(CC)CC,16
CCCCOC1=CC=C(C=C1)C(=O)OCCN1CCCCC1,-,R945512,M1107132,-,-,1-n-butoxy-4-piperidylethoxycarbonylbenzene,Koerner,charochkina,A5793,-,-,-,8.3,Log unit,25,?C,N1(CCCCC1)CCOC(=O)c1ccc(OCCCC)cc1,4
CCN(CC)CCOC(=O)C1=CC=C(Cl)C=C1,-,R945513,M1107133,-,-,1-chloro-4-diethylaminoethoxycarbonylbenzene,Koerner,charochkina,A5793,-,-,-,8.08,Log unit,25,?C,N(CCOC(=O)c1ccc(Cl)cc1)(CC)CC,10
CC(CC1=CC=CC=C1)NCCC#N,-,R945514,M33615,-,-,2-(N-(2-cyano)ethyl)aminopropylbenzene,Koerner,charochkina,A5793,-,-,-,7.23,Log unit,25,?C,N(C(Cc1ccccc1)C)CCC#N,6
CN(CCCC1=CC=CC=C1)CCC#N,-,R945515,M1107134,-,-,2-(N-(2-cyanoethyl)-N-methyl)aminopropylbenzene,Koerner,charochkina,A5793,-,-,-,6.95,Log unit,25,?C,N(CCCc1ccccc1)(C)CCC#N,9
CCN(CC)CC(C)(C)COC(=O)C1=CC=CC=C1,-,R945516,M1107135,-,-,"(3-diethylamino-2,2-dimethyl)propoxycarbonylbenzene",Koerner,charochkina,A5793,-,-,-,9.58,Log unit,25,?C,N(CC(COC(=O)c1ccccc1)(C)C)(CC)CC,12
CCN(CC)CCCOC(=O)C=CC1=CC=CC=C1,-,R945517,M21433,-,-,2-[3-(diethylamino)propoxycarbonyl]vinylbenzene,Koerner,charochkina,A5793,-,-,-,9.71,Log unit,25,?C,N(CCCOC(=O)C=Cc1ccccc1)(CC)CC,12
CC(C)NCC(O)C1=CC=C(O)C(O)=C1,-,R945518,M18867,-,-,"1,2-dihydroxy-4-(1-hydroxy-2-isopropylamino)ethylbenzene",Koerner,charochkina,A5793,-,-,-,8.795,Log unit,25,?C,N(CC(c1ccc(O)c(O)c1)O)C(C)C,8
CC(C)NC(C(C)C)C(O)C1=CC=C(O)C(O)=C1,-,R945519,M1107136,-,-,"1,2-dihydroxy-4-(1-hydroxy-2-isopropylamino-3-methyl)butylbenzene",Koerner,charochkina,A5793,-,-,-,8.88,Log unit,25,?C,N(C(C(c1ccc(O)c(O)c1)O)C(C)C)C(C)C,8
CNCC(O)C1=CC=C(O)C([O-])=C1,-,R945520,M10959,-,-,"1,2-dihydroxy-4-(1-hydroxy-2-methylamino)ethylbenzene",Koerner,charochkina,A5793,-,-,-,10.5,Log unit,25,?C,N(CC(c1ccc(O)c([O-])c1)O)C,8
CNCCC1=CC=C(O)C([O-])=C1,-,R945521,M7298,-,-,"1,2-dihydroxy-4-(2-methylamino)ethylbenzene",Koerner,charochkina,A5793,-,-,-,10.6,Log unit,25,?C,N(CCc1ccc(O)c([O-])c1)C,7
CNC(C)CC1=CC(OC)=C(OC)C=C1,-,R945522,M1107137,-,-,"1,2-dimethoxy-4-(2-methylamino)propylbenzene",Koerner,charochkina,A5793,-,-,-,9.81,Log unit,25,?C,N(C(Cc1ccc(OC)c(c1)OC)C)C,6
CN(C)CC(O)C1=CC=C(O)C=C1,-,R945523,M1107138,-,-,1-(2-dimethylamino-1-hydroxy)ethyl-4-hydroxybenzene,Koerner,charochkina,A5793,-,-,-,9.8,Log unit,25,?C,Oc1ccc(C(O)CN(C)C)cc1,0