Smiles,CASRN,Record ID,Molecule ID,External ID,N,Name,Introducer,Modifer,Article ID,PUBMED ID,PAGE,TABLE,pKa,pKa Unit,Temperature,Temperature Unit,Ionizable center smiles,IC group
C1CNCCNC1,-,R1206595,M21022,-,-,"1,4-Diazacycloheptane",Koerner,charochkina,A5793,-,-,-,10.65,Log unit,25,?C,N1CCNCCC1,3
N1C=CN=C1,-,R1206596,M9590,-,-,Imidazole,Koerner,charochkina,A5793,-,-,-,6.9365,Log unit,25,?C,n1c[nH]cc1,nethR
N1C=CN=C1,-,R1206597,M9590,-,-,Imidazole,Koerner,charochkina,A5793,-,-,-,14.5,Log unit,25,?C,[nH]1cncc1,nr2_a
CC(=O)OCCC1CNC=N1,-,R1206598,M1106689,-,-,"Imidazole, 4-(2-acctoxyethyl)-",Koerner,charochkina,A5793,-,-,-,7.27,Log unit,25,?C,N1=CNCC1CCOC(=O)C,nethR
NCCC1=CNC=N1,-,R1206599,M7590,-,-,"Imidazole,4(5)-(2aminoethyl)-",Koerner,charochkina,A5793,-,-,-,6.2,Log unit,25,?C,n1c[nH]cc1CCN,nethR
NCC1=CNC=N1,-,R1206600,M336108,-,-,"Imisazole, 4-aminomethyl-",Koerner,charochkina,A5793,-,-,-,9.37,Log unit,25,?C,NCc1nc[nH]c1,4
[NH2+]CC1=CNC=N1,-,R1206601,M1157912,-,-,"Imisazole, 4-aminomethyl-",Koerner,charochkina,A5793,-,-,-,4.71,Log unit,25,?C,n1c[nH]cc1C[NH2+],nethR
N1C=NC(=C1C1=CC=CC=C1)C1=CC=CC=C1,-,R1206602,M67459,-,-,"Imidazole, 4,5-diphenyl-",Koerner,charochkina,A5793,-,-,-,5.9,Log unit,25,?C,n1c(c2ccccc2)c([nH]c1)c1ccccc1,nethR
CCN1C=CN=C1,-,R1206603,M31667,-,-,"Imidazole, 1-ethyl-",Koerner,charochkina,A5793,-,-,-,7.3,Log unit,25,?C,n1ccn(c1)CC,nethR
CCC1=NC=CN1,-,R1206604,M68556,-,-,"Imidazole, 2-ethyl-",Koerner,charochkina,A5793,-,-,-,8,Log unit,25,?C,n1cc[nH]c1CC,nethR
OCC1=CNC=N1,-,R1206605,M23730,-,-,"Imidazole, 4(or5)-hydroxymethyl-",Koerner,charochkina,A5793,-,-,-,6.385,Log unit,25,?C,n1c[nH]cc1CO,nethR
COC(=O)CCCC1=CNC=N1,-,R1206606,M1106690,-,-,"Imidazole, 4-(3-methoxycarbonylpropyl)-",Koerner,charochkina,A5793,-,-,-,6.65,Log unit,25,?C,n1c[nH]cc1CCCC(=O)OC,nethR
CN1C=CN=C1,-,R1206607,M22534,-,-,"Imidazloe, 1-methyl-",Koerner,charochkina,A5793,-,-,-,7.075,Log unit,25,?C,n1cn(C)cc1,nethR
CC1=NC=CN1,-,R1206608,M6531,-,-,"Imidazloe, 2-methyl-",Koerner,charochkina,A5793,-,-,-,7.851,Log unit,25,?C,n1cc[nH]c1C,nethR
CC1=CNC=N1,-,R1206609,M23727,-,-,"Imidazole,4(or5)-methyl-",Koerner,charochkina,A5793,-,-,-,7.444,Log unit,25,?C,n1c[nH]cc1C,nethR
O=N(=O)C1=CNC=N1,-,R1206610,M12064,-,-,"Imidazole, 4(or5)-nitro-",Koerner,charochkina,A5793,-,-,-,-0.05,Log unit,25,?C,n1c[nH]cc1N(=O)=O,nethR
N1C=CN=C1C1=CC=CC=C1,-,R1206611,M14019,-,-,"Imidazole, 2-phenyl-",Koerner,charochkina,A5793,-,-,-,6.48,Log unit,25,?C,n1cc[nH]c1c1ccccc1,nethR
CCN(CC)CCC(C1=NCCN1)C1=CC=CC=C1,-,R1206612,M1157913,-,-,"2-Imidazoline, 2-(3-diethylamino-1-phenyl)prophyl-",Koerner,charochkina,A5793,-,-,-,10.09,Log unit,25,?C,N1=C(C(c2ccccc2)CCN(CC)CC)NCC1,3
CN(C)CCC(C1=NCCN1)C1=CC=CC=C1,-,R1206613,M1157914,-,-,"2-Imidazoline, 2-(3-dimethylamino-1-phenyl)prophyl-",Koerner,charochkina,A5793,-,-,-,9.99,Log unit,25,?C,N1=C(C(c2ccccc2)CCN(C)C)NCC1,3
OC1=CC2=C(C=CC=C2)C=C1C1=[N+]CCN1,-,R1206614,M1157915,-,-,"Imidazoline, 2-[3-(2-hyddroxynaphthyl)]-",Koerner,charochkina,A5793,-,-,-,7.01,Log unit,25,?C,Oc1c(C2=[N+]CCN2)cc2ccccc2c1,oh
[O-]C1=CC2=C(C=CC=C2)C=C1C1=NCCN1,-,R1206615,M33788,-,-,"Imidazoline, 2-[3-(2-hyddroxynaphthyl)]-",Koerner,charochkina,A5793,-,-,-,10.85,Log unit,25,?C,N1=C(NCC1)c1cc2ccccc2cc1[O-],nethR
NC(=N)NC(N)=N,-,R1206616,M17099,-,-,DIGUANIDE,Koerner,charochkina,A5793,-,-,-,12.5,Log unit,25,?C,N=C(N)NC(=N)N,neth
NC(=N)NC(N)=[NH2+],-,R1206617,M17099,-,-,DIGUANIDE,Koerner,charochkina,A5793,-,-,-,3.4,Log unit,25,?C,N=C(NC(=[NH2+])N)N,neth
NC(=N)NC(=N)NC1=CC2=C(C=C1)C=C1C=CC=CC1=C2,-,R1206618,M1106691,-,-,N1-(2-anthryl)diguanide,Koerner,charochkina,A5793,-,-,-,11,Log unit,25,?C,N=C(NC(=N)Nc1cc2cc3ccccc3cc2cc1)N,neth
NC(=N)NC(=N)NC1=CC2=C(C=C1)C=C1C=CC=CC1=C2,-,R1206619,M1106691,-,-,N1-(2-anthryl)diguanide,Koerner,charochkina,A5793,-,-,-,10.4,Log unit,25,?C,N=C(NC(=N)Nc1cc2cc3ccccc3cc2cc1)N,neth
NC(=N)NC(N)=NCC1=CC=CC=C1,-,R1206620,M1106692,-,-,benzyl-diguanide,Koerner,charochkina,A5793,-,-,-,11.25,Log unit,25,?C,N=C(N)NC(=NCc1ccccc1)N,neth
NC(=[NH2+])NC(N)=NCC1=CC=CC=C1,-,R1206621,M1106692,-,-,benzyl-diguanide,Koerner,charochkina,A5793,-,-,-,2.7,Log unit,25,?C,N(=C(NC(=[NH2+])N)N)Cc1ccccc1,neth
CC(C)NC(=N)NC(=N)NC1=CC=C(Br)C=C1,-,R1206622,M1106693,-,-,N1-(4-bromophenyl)-N5-isopropyl-diguanide,Koerner,charochkina,A5793,-,-,-,11.4,Log unit,25,?C,N=C(NC(=N)Nc1ccc(Br)cc1)NC(C)C,neth
CC(C)NC(=[NH2+])NC(=N)NC1=CC=C(Br)C=C1,-,R1206623,M1106693,-,-,N1-(4-bromophenyl)-N5-isopropyl-diguanide,Koerner,charochkina,A5793,-,-,-,2.2,Log unit,25,?C,N=C(Nc1ccc(Br)cc1)NC(=[NH2+])NC(C)C,neth
CCCCN=C(N)NC(N)=N,-,R1206624,M23298,-,-,butyl-diguanide,Koerner,charochkina,A5793,-,-,-,11.28,Log unit,25,?C,N=C(N)NC(=NCCCC)N,neth
CCCCN=C(N)NC(N)=[NH2+],-,R1206625,M23298,-,-,butyl-diguanide,Koerner,charochkina,A5793,-,-,-,2.92,Log unit,25,?C,N(=C(NC(=[NH2+])N)N)CCCC,neth
NC(=[NH2+])NC(=N)NC1=CC=C(Cl)C=C1,-,R1206626,M56033,-,-,N1-(4-chlrophenyl)-diguanide,Koerner,charochkina,A5793,-,-,-,2.2,Log unit,25,?C,N=C(NC(=[NH2+])N)Nc1ccc(Cl)cc1,neth
NC(=N)NC(=N)NC1=CC=C(Cl)C=C1,-,R1206627,M56033,-,-,N1-(4-chlrophenyl)-diguanide,Koerner,charochkina,A5793,-,-,-,10.4,Log unit,25,?C,N=C(N)NC(=N)Nc1ccc(Cl)cc1,8
CC(C)NC(=N)NC(N)=NC1=CC=C(Cl)C=C1,-,R1206628,M10621,-,-,N2-(4-chlrophenyl)-N5-isopropyl-diguanide,Koerner,charochkina,A5793,-,-,-,10.4,Log unit,25,?C,N=C(NC(=Nc1ccc(Cl)cc1)N)NC(C)C,neth
CC(C)NC(=[NH2+])NC(N)=NC1=CC=C(Cl)C=C1,-,R1206629,M10621,-,-,N2-(4-chlrophenyl)-N5-isopropyl-diguanide,Koerner,charochkina,A5793,-,-,-,2.3,Log unit,25,?C,N(=C(N)NC(=[NH2+])NC(C)C)c1ccc(Cl)cc1,neth
CC(C)NC(=N)NC(=N)N(C)C1=CC=CC=C1,-,R1206630,M1106694,-,-,N1-(4-chlrophenyl)-N5-isopropyl-N1-methyl-diguanide,Koerner,charochkina,A5793,-,-,-,12.8,Log unit,25,?C,N=C(NC(=N)N(c1ccccc1)C)NC(C)C,6
CC(C)NC(=[NH2+])NC(=N)N(C)C1=CC=CC=C1,-,R1206631,M1106694,-,-,N1-(4-chlrophenyl)-N5-isopropyl-N1-methyl-diguanide,Koerner,charochkina,A5793,-,-,-,2.4,Log unit,25,?C,N=C(N(c1ccccc1)C)NC(=[NH2+])NC(C)C,neth
CN=C(NC(=N)NC(C)C)NC1=CC=CC=C1,-,R1206632,M1106695,-,-,N1-(4-chlrophenyl)-N5-isopropyl-N2-methyl-diguanide,Koerner,charochkina,A5793,-,-,-,11.8,Log unit,25,?C,N=C(NC(=NC)Nc1ccccc1)NC(C)C,neth
CN=C(NC(=[NH2+])NC(C)C)NC1=CC=CC=C1,-,R1206633,M1106695,-,-,N1-(4-chlrophenyl)-N5-isopropyl-N2-methyl-diguanide,Koerner,charochkina,A5793,-,-,-,2.3,Log unit,25,?C,N(=C(Nc1ccccc1)NC(=[NH2+])NC(C)C)C,neth
C[N+]=C(NC(C)C)NC(=N)NC1=CC=CC=C1,-,R1206634,M1157916,-,-,N1-(4-chlrophenyl)-N5-isopropyl-N4-methyl-diguanide,Koerner,charochkina,A5793,-,-,-,2,Log unit,25,?C,N=C(Nc1ccccc1)NC(=[N+]C)NC(C)C,neth
CN=C(NC(C)C)NC(=N)NC1=CC=CC=C1,-,R1206635,M1106696,-,-,N1-(4-chlrophenyl)-N5-isopropyl-N4-methyl-diguanide,Koerner,charochkina,A5793,-,-,-,12.2,Log unit,25,?C,N(=C(NC(=N)Nc1ccccc1)NC(C)C)C,neth
NC(=N)NC(N)=NC1CCCCC1,-,R1206636,M1000961,-,-,cyclohexyl-diguanide,Koerner,charochkina,A5793,-,-,-,11.39,Log unit,25,?C,N(=C(NC(=N)N)N)C1CCCCC1,neth
NC(=[NH2+])NC(N)=NC1CCCCC1,-,R1206637,M1000961,-,-,cyclohexyl-diguanide,Koerner,charochkina,A5793,-,-,-,3.2,Log unit,25,?C,N(=C(NC(=[NH2+])N)N)C1CCCCC1,neth
CCN(CC)C(=N)NC(N)=N,-,R1206638,M1106697,-,-,N'-diethyl-diguanide,Koerner,charochkina,A5793,-,-,-,11.66,Log unit,25,?C,N=C(NC(=N)N)N(CC)CC,neth
NC(=N)NC(=N)NCCNC(=N)NC(N)=N,-,R1206639,M1106698,-,-,N-(diguanidoethylene)-diguanide,Koerner,charochkina,A5793,-,-,-,11.5,Log unit,25,?C,N=C(NC(=N)NCCNC(=N)NC(=N)N)N,neth
NC(=[NH2+])NC(=N)NCCNC(=N)NC(N)=[NH2+],-,R1206640,M1106698,-,-,N-(diguanidoethylene)-diguanide,Koerner,charochkina,A5793,-,-,-,2.6,Log unit,25,?C,N=C(NCCNC(=N)NC(=[NH2+])N)NC(=[NH2+])N,neth
CN(C)C(=N)NC(N)=N,-,R1206641,M13363,-,-,N'-dimethyl-diguanide,Koerner,charochkina,A5793,-,-,-,11.52,Log unit,25,?C,N=C(NC(=N)N)N(C)C,neth
CN(C)C(=N)NC(N)=[NH2+],-,R1206642,M13363,-,-,N'-dimethyl-diguanide,Koerner,charochkina,A5793,-,-,-,2.75,Log unit,25,?C,N=C(NC(=[NH2+])N)N(C)C,neth
CCN=C(N)NC(N)=N,-,R1206643,M1106699,-,-,N'-ethyl-diguanide,Koerner,charochkina,A5793,-,-,-,11.47,Log unit,25,?C,N=C(N)NC(=NCC)N,neth
CCN=C(N)NC(N)=[NH2+],-,R1206644,M1106699,-,-,N'-ethyl-diguanide,Koerner,charochkina,A5793,-,-,-,3.08,Log unit,25,?C,N(=C(NC(=[NH2+])N)N)CC,neth
CCCCCCN=C(N)NC(N)=N,-,R1206645,M110027,-,-,hexyl-diguanide,Koerner,charochkina,A5793,-,-,-,11.44,Log unit,25,?C,N(=C(NC(=N)N)N)CCCCCC,neth
CCCCCCN=C(N)NC(N)=[NH2+],-,R1206646,M110027,-,-,cyclohexyl-diguanide,Koerner,charochkina,A5793,-,-,-,3.3,Log unit,25,?C,N(=C(NC(=[NH2+])N)N)CCCCCC,neth
CC(C)NC(=N)NC(=N)NC1=CC=C(I)C=C1,-,R1206647,M1106700,-,-,N1-(4-Iodophenyl)-N5-isopropyl-diguanide,Koerner,charochkina,A5793,-,-,-,11,Log unit,25,?C,N=C(NC(=N)Nc1ccc(I)cc1)NC(C)C,neth
CC(C)N=C(N)NC(N)=N,-,R1206648,M1106701,-,-,isoprpyl-diguanide,Koerner,charochkina,A5793,-,-,-,11.35,Log unit,25,?C,N=C(N)NC(=NC(C)C)N,neth
CC(C)N=C(N)NC(N)=[NH2+],-,R1206649,M1106701,-,-,isoprpyl-diguanide,Koerner,charochkina,A5793,-,-,-,3.1,Log unit,25,?C,N(=C(NC(=[NH2+])N)N)C(C)C,neth
CC(C)NC(=N)NC(=N)NC1=CC=CC=C1,-,R1206650,M1106702,-,-,N1-isopropyl-(4-Iodophenyl)-N5-diguanide,Koerner,charochkina,A5793,-,-,-,11.5,Log unit,25,?C,N=C(NC(=N)Nc1ccccc1)NC(C)C,neth
CC(C)NC(=[NH2+])NC(=N)NC1=CC=CC=C1,-,R1206651,M1106702,-,-,N1-isopropyl-(4-Iodophenyl)-N5-diguanide,Koerner,charochkina,A5793,-,-,-,1.9,Log unit,25,?C,N=C(Nc1ccccc1)NC(=[NH2+])NC(C)C,neth
CN=C(N)NC(N)=N,-,R1206652,M1106703,-,-,N'-methyl-diguanide,Koerner,charochkina,A5793,-,-,-,11.42,Log unit,25,?C,N=C(N)NC(=NC)N,neth
CN=C(N)NC(N)=[NH2+],-,R1206653,M1106703,-,-,N'-methyl-diguanide,Koerner,charochkina,A5793,-,-,-,3,Log unit,25,?C,N(=C(NC(=[NH2+])N)N)C,neth
NC(=N)NC(N)=NC1=CC=CC2=C1C=CC=C2,-,R1206654,M32844,-,-,napthyl-diguanide,Koerner,charochkina,A5793,-,-,-,10.24,Log unit,25,?C,N(=C(NC(=N)N)N)c1cccc2ccccc12,neth
NC(=N)NC(N)=[N+]C1=CC=CC2=C1C=CC=C2,-,R1206655,M1157917,-,-,napthyl-diguanide,Koerner,charochkina,A5793,-,-,-,2.04,Log unit,25,?C,N=C(N)NC(=[N+]c1cccc2ccccc12)N,neth
NC(=N)NC(N)=NC1=CC2=C(C=CC=C2)C=C1,-,R1206656,M30277,-,-,2-napthyl-diguanide,Koerner,charochkina,A5793,-,-,-,10.7,Log unit,25,?C,N(=C(N)NC(=N)N)c1cc2ccccc2cc1,neth
NC(=N)NC(=N)NC1=CC=CC=C1,-,R1206657,M1655,-,-,phenyl-diguanide,Koerner,charochkina,A5793,-,-,-,10.7,Log unit,25,?C,N=C(N)NC(=N)Nc1ccccc1,8
NC(=[NH2+])NC(=N)NC1=CC=CC=C1,-,R1206658,M1655,-,-,DIGUANIDE,Koerner,charochkina,A5793,-,-,-,2.1,Log unit,25,?C,N=C(NC(=[NH2+])N)Nc1ccccc1,neth
CCCN=C(N)NC(N)=N,-,R1206659,M1106704,-,-,propyl-diguanide,Koerner,charochkina,A5793,-,-,-,11.35,Log unit,25,?C,N=C(N)NC(=NCCC)N,neth
CCCN=C(N)NC(N)=[NH2+],-,R1206660,M1106704,-,-,isoprpyl-diguanide,Koerner,charochkina,A5793,-,-,-,3.1,Log unit,25,?C,N(=C(NC(=[NH2+])N)N)CCC,neth
NC(N)=N,-,R1206661,M18856,-,-,GUANIDINE,Koerner,charochkina,A5793,-,-,-,13.9,Log unit,25,?C,N=C(N)N,neth
CC(=O)N=C(N)N,-,R1206662,M38840,-,-,Acetylguanidine,Koerner,charochkina,A5793,-,-,-,8.26,Log unit,25,?C,N(=C(N)N)C(=O)C,neth
NN=C(N)N,-,R1206663,M17552,-,-,aminoguanidine,Koerner,charochkina,A5793,-,-,-,3,Log unit,25,?C,NC(=NN)N,neth
NC(N)=NC1=CC2=C(C=C1)C=C1C=CC=CC1=C2,-,R1206664,M1106705,-,-,2-anthrylguanidine,Koerner,charochkina,A5793,-,-,-,11,Log unit,25,?C,N(=C(N)N)c1cc2cc3ccccc3cc2cc1,neth
CNC(=N)NC,-,R1206665,M987722,-,-,"N,N'-Dimethylguanidine",Koerner,charochkina,A5793,-,-,-,13.9,Log unit,25,?C,N=C(NC)NC,neth
CN(C)C(N)=NN(=O)=O,-,R1206666,M1106706,-,-,"N,N-Dimethyl-N'-nitroguanidine",Koerner,charochkina,A5793,-,-,-,-1.3,Log unit,25,?C,N(C)(C)C(=NN(=O)=O)N,neth
N=C(NC1=CC=CC=C1)NC1=CC=CC=C1,-,R1206667,M18397,-,-,"N,N'-Dphenylguanidine",Koerner,charochkina,A5793,-,-,-,10.3,Log unit,25,?C,N=C(Nc1ccccc1)Nc1ccccc1,neth
CNC(N)=N,-,R1206668,M20658,-,-,METHYLGUANIDINE,Koerner,charochkina,A5793,-,-,-,13.7,Log unit,25,?C,N=C(NC)N,neth
CNC(N)=NN(=O)=O,-,R1206669,M29139,-,-,N-Methyl-N'-nitroguanidine,Koerner,charochkina,A5793,-,-,-,-0.9,Log unit,25,?C,N(C)C(=NN(=O)=O)N,neth
NC(N)=NC1=CC2=C(C=CC=C2)C=C1,-,R1206670,M184479,-,-,2-napthylguanidine,Koerner,charochkina,A5793,-,-,-,10.7,Log unit,25,?C,N(=C(N)N)c1cc2ccccc2cc1,neth
CNC1=CC=C(NCCO)C2=C1C(=O)C1=CC=CC=C1C2=O,-,R1206463,M26946,-,-,Disperse blue 3,Koerner,charochkina,A5793,-,-,-,1.67,Log unit,25,?C,N(c1ccc(NC)c2C(=O)c3ccccc3C(=O)c12)CCO,4
N[NH2+],-,R1206466,M1157868,-,-,HYDRAZINE,Koerner,charochkina,A5793,-,-,-,-0.9,Log unit,25,?C,N[NH2+],nr2
CCN(N)CC,-,R1206467,M22532,-,-,"N,N-di-ethylhydrazine",Koerner,charochkina,A5793,-,-,-,7.71,Log unit,25,?C,NN(CC)CC,3
CN(C)N,-,R1206469,M17163,-,-,"N,N-di-methylhydrazine",Koerner,charochkina,A5793,-,-,-,7.21,Log unit,25,?C,NN(C)C,3
CCNN,-,R1206471,M67284,-,-,Ethylhydrazine,Koerner,charochkina,A5793,-,-,-,7.99,Log unit,25,?C,NNCC,3
CNN,-,R1206472,M3735,-,-,METHYLHYDRAZINE,Koerner,charochkina,A5793,-,-,-,7.87,Log unit,25,?C,NNC,3
CC(CCN(C)C)NN,-,R1206473,M1157869,-,-,1-dimethylamino-3-hydrazinobutane,Koerner,charochkina,A5793,-,-,-,9.23,Log unit,25,?C,N(CCC(NN)C)(C)C,5
CC(CC[N+](C)C)NN,-,R1206474,M1157870,-,-,1-dimethylamino-3-hydrazinobutane,Koerner,charochkina,A5793,-,-,-,6.1,Log unit,25,?C,NNC(C)CC[N+](C)C,4
CN(C)N(C)C,-,R1206475,M77329,-,-,Tetramethylhydrazine,Koerner,charochkina,A5793,-,-,-,6.6,Log unit,25,?C,N(N(C)C)(C)C,2
CNN(C)C,-,R1206476,M1016037,-,-,trimethylhydrazine,Koerner,charochkina,A5793,-,-,-,6.8,Log unit,25,?C,N(C)N(C)C,3
NNCC1=CC=CC=C1,-,R1206477,M21700,-,-,Benzylhydrazine,Koerner,charochkina,A5793,-,-,-,6.83,Log unit,25,?C,NNCc1ccccc1,4
CC1=CC=C(NN)C=C1Br,-,R1206478,M1157871,-,-,(3-bromo-4-methyl)phenylhydrazine,Koerner,charochkina,A5793,-,-,-,5.14,Log unit,25,?C,NNc1cc(Br)c(cc1)C,4
CC1=CC(NN)=CC=C1Br,-,R1206479,M1157872,-,-,(4-bromo-3-methyl)phenylhydrazine,Koerner,charochkina,A5793,-,-,-,5.2,Log unit,25,?C,NNc1ccc(Br)c(c1)C,4
CN(N)C1=CC=C(C)C=C1Br,-,R1206480,M1157873,-,-,1-(2-bromo-4-methyl)phenyl-1-methylhydrazine,Koerner,charochkina,A5793,-,-,-,4.95,Log unit,25,?C,NN(c1c(Br)cc(cc1)C)C,3
CN(N)C1=CC=C(C)C(Br)=C1,-,R1206481,M1157874,-,-,1-(3-bromo-4-methyl)phenyl-1-methylhydrazine,Koerner,charochkina,A5793,-,-,-,4.62,Log unit,25,?C,NN(c1cc(Br)c(cc1)C)C,3
NNC1=CC=CC=C1Br,-,R1206482,M116760,-,-,(2-bromo)phenylhydrazine,Koerner,charochkina,A5793,-,-,-,4.54,Log unit,25,?C,NNc1c(Br)cccc1,4
NNC1=CC(Br)=CC=C1,-,R1206483,M82917,-,-,(3-bromo)phenylhydrazine,Koerner,charochkina,A5793,-,-,-,4.84,Log unit,25,?C,NNc1cc(Br)ccc1,4
NNC1=CC=C(Br)C=C1,-,R1206484,M22001,-,-,(4-bromo)phenylhydrazine,Koerner,charochkina,A5793,-,-,-,5.05,Log unit,25,?C,NNc1ccc(Br)cc1,4
CN(N)C1=CC=CC=C1Br,-,R1206485,M1157875,-,-,1-(o-bromophenyl)-1-methylhydrazine,Koerner,charochkina,A5793,-,-,-,4.68,Log unit,25,?C,NN(c1c(Br)cccc1)C,3
CN(N)C1=CC(Br)=CC=C1,-,R1206486,M1157876,-,-,1-(m-bromophenyl)-1-methylhydrazine,Koerner,charochkina,A5793,-,-,-,4.3,Log unit,25,?C,NN(c1cc(Br)ccc1)C,3
CN(N)C1=CC=C(Br)C=C1,-,R1206487,M1157877,-,-,1-(p-bromophenyl)-1-methylhydrazine,Koerner,charochkina,A5793,-,-,-,4.62,Log unit,25,?C,NN(c1ccc(Br)cc1)C,3
NNC1=CC=CC=C1Cl,-,R1206488,M87242,-,-,(2-chloro)phenylhydrazine,Koerner,charochkina,A5793,-,-,-,4.65,Log unit,25,?C,NNc1c(Cl)cccc1,4
NNC1=CC(Cl)=CC=C1,-,R1206489,M71048,-,-,(3-chloro)phenylhydrazine,Koerner,charochkina,A5793,-,-,-,4.85,Log unit,25,?C,NNc1cc(Cl)ccc1,4
NNC1=CC=C(Cl)C=C1,-,R1206490,M68564,-,-,(4-chloro)phenylhydrazine,Koerner,charochkina,A5793,-,-,-,5.03,Log unit,25,?C,NNc1ccc(Cl)cc1,4
CN(N)C1=CC=CC=C1Cl,-,R1206491,M1157878,-,-,1-(o-chlorophenyl)-1-methylhydrazine,Koerner,charochkina,A5793,-,-,-,4.78,Log unit,25,?C,NN(c1c(Cl)cccc1)C,3
CN(N)C1=CC(Cl)=CC=C1,-,R1206492,M1157879,-,-,1-(m-chlorophenyl)-1-methylhydrazine,Koerner,charochkina,A5793,-,-,-,4.43,Log unit,25,?C,NN(c1cc(Cl)ccc1)C,3
CN(N)C1=CC=C(Cl)C=C1,-,R1206493,M1157880,-,-,1-(p-chlorophenyl)-1-methylhydrazine,Koerner,charochkina,A5793,-,-,-,4.64,Log unit,25,?C,NN(c1ccc(Cl)cc1)C,3
NNCCC#N,-,R1206494,M742207,-,-,(2-cyano)ethylhydrazine,Koerner,charochkina,A5793,-,-,-,5.91,Log unit,25,?C,NNCCC#N,4
NNC1=CC(=CC=C1)C#N,-,R1206495,M133831,-,-,(3-cyano)phenylhydrazine,Koerner,charochkina,A5793,-,-,-,4.5,Log unit,25,?C,NNc1cccc(c1)C#N,4
NNC1=CC=C(C=C1)C#N,-,R1206496,M110021,-,-,(4-cyano)phenylhydrazine,Koerner,charochkina,A5793,-,-,-,4.2,Log unit,25,?C,NNc1ccc(cc1)C#N,4
CN(N)C1=C(Br)C=C(Br)C=C1,-,R1206497,M1157881,-,-,"1-(2,4-dibromo)phenyl-1-methylhydrazine",Koerner,charochkina,A5793,-,-,-,4.65,Log unit,25,?C,NN(c1c(cc(Br)cc1)Br)C,3
NNC1=C(Cl)C=C(Cl)C=C1,-,R1206498,M1157882,-,-,"(2,4-dichloro)phenylhydrazine",Koerner,charochkina,A5793,-,-,-,4.3,Log unit,25,?C,NNc1c(cc(Cl)cc1)Cl,4
NNC1=CC(Cl)=CC=C1Cl,-,R1206499,M19923,-,-,"(2,5-dichlro)phenylhydrazine",Koerner,charochkina,A5793,-,-,-,4.44,Log unit,25,?C,NNc1cc(Cl)ccc1Cl,4
NNC1=CC=C(Cl)C(Cl)=C1,-,R1206500,M102451,-,-,"(3,4-dichloro)phenylhydrazine",Koerner,charochkina,A5793,-,-,-,4.8,Log unit,25,?C,NNc1ccc(Cl)c(Cl)c1,4
CC1=CC(C)=C(NN)C=C1,-,R1206501,M1157883,-,-,"(2,4-dimethyl)phenylhydrazine",Koerner,charochkina,A5793,-,-,-,5.72,Log unit,25,?C,NNc1ccc(cc1C)C,4
CCOC(=O)CNN,-,R1206502,M123711,-,-,ethoxycarbonylmethylhydrazine,Koerner,charochkina,A5793,-,-,-,5.97,Log unit,25,?C,NNCC(=O)OCC,4
CCOC(=O)C1=CC=CC=C1NN,-,R1206503,M1157884,-,-,(2-ethoxycarbonyl)phenylhydrazine,Koerner,charochkina,A5793,-,-,-,4.66,Log unit,25,?C,NNc1ccccc1C(=O)OCC,4
CCOC(=O)C1=CC=CC(NN)=C1,-,R1206504,M1157885,-,-,(3-ethoxycarbonyl)phenylhydrazine,Koerner,charochkina,A5793,-,-,-,4.81,Log unit,25,?C,NNc1cccc(c1)C(=O)OCC,4
CCOC(=O)C1=CC=CC=C1N(C)N,-,R1206505,M1157886,-,-,1-(o-ethoxycarbonylphenyl)-1-methylhydrazine,Koerner,charochkina,A5793,-,-,-,4.91,Log unit,25,?C,NN(c1ccccc1C(=O)OCC)C,3
CCOC(=O)C1=CC=CC(=C1)N(C)N,-,R1206506,M1157887,-,-,1-(m-ethoxycarbonylphenyl)-1-methylhydrazine,Koerner,charochkina,A5793,-,-,-,4.45,Log unit,25,?C,NN(c1cccc(c1)C(=O)OCC)C,3
CCOC(=O)C1=CC=C(C=C1)N(C)N,-,R1206507,M1157888,-,-,1-(p-ethoxycarbonylphenyl)-1-methylhydrazine,Koerner,charochkina,A5793,-,-,-,4.15,Log unit,25,?C,NN(c1ccc(cc1)C(=O)OCC)C,3
CCOC1=CC=CC=C1NN,-,R1206508,M1157889,-,-,(2-ethoxy)phenylhydrazine,Koerner,charochkina,A5793,-,-,-,5.36,Log unit,25,?C,NNc1ccccc1OCC,4
CCOC1=CC=CC(NN)=C1,-,R1206509,M1157890,-,-,(3-ethoxy)phenylhydrazine,Koerner,charochkina,A5793,-,-,-,5.14,Log unit,25,?C,NNc1cccc(c1)OCC,4
CCOC1=CC=C(NN)C=C1,-,R1206510,M1157891,-,-,(4-ethoxy)phenylhydrazine,Koerner,charochkina,A5793,-,-,-,5.59,Log unit,25,?C,NNc1ccc(cc1)OCC,4
CCOC1=CC=CC=C1N(C)N,-,R1206511,M1157892,-,-,1-(o-ethoxyphenyl)-1-methylhydrazine,Koerner,charochkina,A5793,-,-,-,5.25,Log unit,25,?C,NN(c1ccccc1OCC)C,3
CCOC1=CC(=CC=C1)N(C)N,-,R1206512,M1157893,-,-,1-(m-ethoxyphenyl)-1-methylhydrazine,Koerner,charochkina,A5793,-,-,-,4.72,Log unit,25,?C,NN(c1cccc(c1)OCC)C,3
CCOC1=CC=C(C=C1)N(C)N,-,R1206513,M1157894,-,-,1-(p-ethoxyphenyl)-1-methylhydrazine,Koerner,charochkina,A5793,-,-,-,5.53,Log unit,25,?C,NN(c1ccc(cc1)OCC)C,3
CCN(N)C1=CC=CC=C1,-,R1206514,M23129,-,-,1-Ethyl-1-phenylhydrazine,Koerner,charochkina,A5793,-,-,-,5.16,Log unit,25,?C,NN(c1ccccc1)CC,3
NNCCO,-,R1206515,M18704,-,-,(2-hydroxy)ethylhydrazine,Koerner,charochkina,A5793,-,-,-,7.12,Log unit,25,?C,NNCCO,4
NNC1=CC(I)=CC=C1,-,R1206516,M1157895,-,-,3-iodophenylhydrazine,Koerner,charochkina,A5793,-,-,-,4.7,Log unit,25,?C,NNc1cc(I)ccc1,4
NNC1=CC=C(I)C=C1,-,R1206517,M748589,-,-,4-Iodophenylhydrazine,Koerner,charochkina,A5793,-,-,-,4.9,Log unit,25,?C,NNc1ccc(I)cc1,4
COC1=CC=CC=C1NN,-,R1206518,M123717,-,-,(2-methoxy)phenylhydrazine,Koerner,charochkina,A5793,-,-,-,5.53,Log unit,25,?C,NNc1ccccc1OC,4
COC1=CC(NN)=CC=C1,-,R1206519,M86715,-,-,(3-methoxy)phenylhydrazine,Koerner,charochkina,A5793,-,-,-,5.3,Log unit,25,?C,NNc1cccc(c1)OC,4
COC1=CC=C(NN)C=C1,-,R1206520,M72958,-,-,(4-methoxy)phenylhydrazine,Koerner,charochkina,A5793,-,-,-,5.71,Log unit,25,?C,NNc1ccc(cc1)OC,4
COC1=CC=CC=C1N(C)N,-,R1206521,M1157896,-,-,1-(o-methoxyphenyl)-1-methylhydrazine,Koerner,charochkina,A5793,-,-,-,5.42,Log unit,25,?C,NN(c1ccccc1OC)C,3
COC1=CC(=CC=C1)N(C)N,-,R1206522,M1157897,-,-,1-(m-methoxyphenyl)-1-methylhydrazine,Koerner,charochkina,A5793,-,-,-,4.9,Log unit,25,?C,NN(c1cccc(c1)OC)C,3
COC1=CC=C(C=C1)N(C)N,-,R1206523,M1157898,-,-,1-(p-methoxyphenyl)-1-methylhydrazine,Koerner,charochkina,A5793,-,-,-,5.6,Log unit,25,?C,NN(c1ccc(cc1)OC)C,3