"SMILES","CASRN","RECORDID","MOLECULEID","EXTERNALID","N","NAME","NAME","INTRODUCER","MODIFIER","ARTICLEID","PUBMEDID","PAGE","TABLE","pKa (smiles as ob. cond.) {measured}","UNIT {pKa (smiles as ob. cond.)}","pKa (smiles as ob. cond.) {measured, converted}","UNIT {pKa (smiles as ob. cond.)}","Ionizable centre (smiles)","IC group detected","AtomNR of IC","groupsAndICs","IC smiles given","IC group given","Temperature","UNIT {Temperature}","MultiGroupDetection","COMMENTS","INCHI_KEY"
"CN(C)C1=CC=CC=C1","-","R945296","M5099","-","-","n,n-dimethylaniline","-","Koerner","charochkina","A5793","-","-","-","5.15","Log unit","5.15","Log unit","N(c1ccccc1)(C)C","4","","{nr2=[4]}","c(ccc1N(C)C)cc1","nr2","25.0","?C","","-","JLTDJTHDQAWBAV-UHFFFAOYSA"
"CNC1=CC=CC=C1C","-","R945297","M3501","-","-","N,2-Dimethylaniline","-","Koerner","charochkina","A5793","-","-","-","4.61","Log unit","4.61","Log unit","N(c1ccccc1C)C","4","","{nr2=[4]}","c(ccc1NC)cc1C","nr2","25.0","?C","","-","GUAWMXYQZKVRCW-UHFFFAOYSA"
"CNC1=CC=CC(C)=C1","-","R945298","M23348","-","-","N,3-Dimethylaniline","-","Koerner","charochkina","A5793","-","-","-","4.925","Log unit","4.925","Log unit","N(c1cccc(c1)C)C","7","","{nr2=[7]}","c(cc(c1)C)cc1NC","nr2","25.0","?C","","-","FBGJJTQNZVNEQU-UHFFFAOYSA"
"CNC1=CC=C(C)C=C1","-","R945299","M9017","-","-","N,4-DIMETHYLANILINE","-","Koerner","charochkina","A5793","-","-","-","5.305","Log unit","5.305","Log unit","N(c1ccc(cc1)C)C","4","","{nr2=[4]}","c(cc(c1)NC)c(c1)C","nr2","25.0","?C","","-","QCIFLGSATTWUQJ-UHFFFAOYSA"
"CC1=CC=CC(N)=C1C","-","R945300","M12003","-","-","2,3-dimethyl-aniline","-","Koerner","charochkina","A5793","-","-","-","4.71","Log unit","4.71","Log unit","Nc1cccc(c1C)C","3","","{nr2=[3]}","c(cc(N)c1C)cc1C","nr2","25.0","?C","","-","VVAKEQGKZNKUSU-UHFFFAOYSA"
"CC1=CC(C)=C(N)C=C1","-","R945301","M1791","-","-","2,4-dimethyl-aniline","-","Koerner","charochkina","A5793","-","-","-","4.89","Log unit","4.89","Log unit","Nc1ccc(cc1C)C","3","","{nr2=[3]}","c(cc(N)c1C)c(c1)C","nr2","25.0","?C","","-","CZZZABOKJQXEBO-UHFFFAOYSA"
"CC1=CC(N)=C(C)C=C1","-","R945302","M11863","-","-","2,5-dimethyl-aniline","-","Koerner","charochkina","A5793","-","-","-","4.55","Log unit","4.55","Log unit","Nc1c(ccc(c1)C)C","4","","{nr2=[4]}","c(cc(c1N)C)c(c1)C","nr2","25.0","?C","","-","VOWZNBNDMFLQGM-UHFFFAOYSA"
"CC1=CC=CC(C)=C1N","-","R945303","M11016","-","-","2,6-dimethyl-aniline","-","Koerner","charochkina","A5793","-","-","-","3.92","Log unit","3.92","Log unit","Nc1c(cccc1C)C","4","","{nr2=[4]}","c(cc(c1N)C)cc1C","nr2","25.0","?C","","-","UFFBMTHBGFGIHF-UHFFFAOYSA"
"CC1=C(C)C=C(N)C=C1","-","R945304","M2142","-","-","3,4-dimethyl-aniline","-","Koerner","charochkina","A5793","-","-","-","5.17","Log unit","5.17","Log unit","Nc1ccc(c(C)c1)C","8","","{nr2=[8]}","c(cc(c1C)C)c(c1)N","nr2","25.0","?C","","-","DOLQYFPDPKPQSS-UHFFFAOYSA"
"CC1=CC(N)=CC(C)=C1","-","R945305","M6820","-","-","3,5-dimethyl-aniline","-","Koerner","charochkina","A5793","-","-","-","4.85","Log unit","4.85","Log unit","Nc1cc(cc(c1)C)C","5","","{nr2=[5]}","c(c(cc1C)N)c(c1)C","nr2","25.0","?C","","-","MKARNSWMMBGSHX-UHFFFAOYSA"
"CN(C)C1=CC=C(N)C=C1","-","R945306","M18307","-","-","4-dimethylaminoaniline","-","Koerner","charochkina","A5793","-","-","-","6.59","Log unit","6.59","Log unit","N(c1ccc(cc1)N)(C)C","4","","{nr2=[4, 9]}","c(cc(c1)N(C)C)c(c1)N","nr2","25.0","?C","true","-","BZORFPDSXLZWJF-UHFFFAOYSA"
"CCC(C)(CN(C)C)OC(=O)C1=CC=C(N)C=C1","-","R945307","M1107080","-","-","4-[(1-dimethylaminomethyl-1methyl)propoxycarbonyl)]aniline","-","Koerner","charochkina","A5793","-","-","-","8.91","Log unit","8.91","Log unit","N(CC(OC(=O)c1ccc(cc1)N)(CC)C)(C)C","12","","{nr2=[12, 17]}","c(cc(c1)C(=O)OC(CC)(C)CN(C)C)c(c1)N","nr2","25.0","?C","true","-","BVKCJNPSCYAZCT-UHFFFAOYSA"
"CN(C)C1=CC=C(C=C1)N(C)C","-","R945308","M18314","-","-","N',N'-dimethyl-4-dimethylaminoaniline","-","Koerner","charochkina","A5793","-","-","-","6.35","Log unit","6.35","Log unit","N(c1ccc(cc1)N(C)C)(C)C","4","","{nr2=[4, 9]}","c(cc(c1)N(C)C)c(c1)N(C)C","nr2","25.0","?C","true","-","CJAOGUFAAWZWNI-UHFFFAOYSA"
"CN(C)C1=CC=CC(=C1)N(=O)=O","-","R945309","M22604","-","-","N,N-Dimethyl-3-nitroaniline","-","Koerner","charochkina","A5793","-","-","-","2.64","Log unit","2.64","Log unit","N(=O)(=O)c1cccc(c1)N(C)C","4","","{nr2=[4, 9]}","c(cc(c1)N(=O)=O)cc1N(C)C","nr2","25.0","?C","true","-","CJDICMLSLYHRPT-UHFFFAOYSA"
"CN(C)C1=CC=C(C=C1)N(=O)=O","-","R945310","M18315","-","-","N,N-Dimethyl-4-nitroaniline","-","Koerner","charochkina","A5793","-","-","-","0.92","Log unit","0.92","Log unit","N(c1ccc(cc1)N(=O)=O)(C)C","4","","{nr2=[4, 9]}","c(cc(c1)N(C)C)c(c1)N(=O)=O","nr2","25.0","?C","true","-","QJAIOCKFIORVFU-UHFFFAOYSA"
"CC1=C(N)C=CC(=C1C)N(=O)=O","-","R945311","M1107081","-","-","2,3-dimethyl-4-nitro-aniline","-","Koerner","charochkina","A5793","-","-","-","1.96","Log unit","1.96","Log unit","N(=O)(=O)c1ccc(N)c(c1C)C","5","","{nr2=[5, 9]}","c(cc(c1C)N(=O)=O)c(N)c1C","nr2","25.0","?C","true","-","XXIWYZBTCKMAMY-UHFFFAOYSA"
"CC1=CC(=CC(C)=C1N)N(=O)=O","-","R945312","M34032","-","-","2,6-Dimethyl-4-nitro-aniline","-","Koerner","charochkina","A5793","-","-","-","0.98","Log unit","0.98","Log unit","Nc1c(cc(cc1C)N(=O)=O)C","5","","{nr2=[5, 9]}","c(c(c(c1C)N)C)c(c1)N(=O)=O","nr2","25.0","?C","true","-","NSBSVUUVECHDDX-UHFFFAOYSA"
"CC1=CC(N)=CC(C)=C1N(=O)=O","-","R945313","M38152","-","-","3,5-dimethyl-4-nitro-aniline","-","Koerner","charochkina","A5793","-","-","-","2.565","Log unit","2.565","Log unit","Nc1cc(C)c(c(c1)C)N(=O)=O","5","","{nr2=[5, 9]}","c(c(cc1C)N)c(C)c1N(=O)=O","nr2","25.0","?C","true","-","RKYZUYQFTGLAOX-UHFFFAOYSA"
"CN(C)C1=CC(=CC=C1)C(F)(F)F","-","R945314","M1107082","-","-","N,N-dimethyl-3-trifluoromethylaniline","-","Koerner","charochkina","A5793","-","-","-","3.27","Log unit","3.27","Log unit","N(c1cccc(c1)C(F)(F)F)(C)C","4","","{nr2=[4]}","c(cc(c1)N(C)C)cc1C(F)(F)F","nr2","25.0","?C","","-","UYKRFRIIVXQIHO-UHFFFAOYSA"
"CN(C)C1=CC=C(C=C1)C(F)(F)F","-","R945315","M1006777","-","-","N,N-dimethyl-4-trifluoromethylaniline","-","Koerner","charochkina","A5793","-","-","-","2.67","Log unit","2.67","Log unit","N(c1ccc(cc1)C(F)(F)F)(C)C","10","","{nr2=[10]}","c(cc(c1)C(F)(F)F)c(c1)N(C)C","nr2","25.0","?C","","-","MLFFPCMQWLVVLM-UHFFFAOYSA"
"CN(C)C1=C(C=C(C=C1N(=O)=O)N(=O)=O)N(=O)=O","-","R945316","M71386","-","-","N,N-Dimethyl-2,4,6-trinitroaniline","-","Koerner","charochkina","A5793","-","-","-","-4.915","Log unit","-4.915","Log unit","N(=O)(=O)c1cc(cc(N(=O)=O)c1N(C)C)N(=O)=O","4","","{nr2=[4, 7, 11, 15]}","c(c(cc1N(=O)=O)N(=O)=O)c(N(=O)=O)c1N(C)C","nr2","25.0","?C","true","-","CHAGGWKJBGUBBJ-UHFFFAOYSA"
"NC1=C(C=C(C=C1)N(=O)=O)N(=O)=O","-","R945317","M6549","-","-","2,4-dinitro-aniline","-","Koerner","charochkina","A5793","-","-","-","-4.475","Log unit","-4.475","Log unit","N(=O)(=O)c1ccc(N)c(c1)N(=O)=O","4","","{nr2=[4, 8, 10]}","c(cc(c1)N(=O)=O)c(N)c1N(=O)=O","nr2","25.0","?C","true","-","LXQOQPGNCGEELI-UHFFFAOYSA"
"NC1=C(C=CC(=C1)N(=O)=O)N(=O)=O","-","R945318","M1107083","-","-","2,5-dinitroaniline","-","Koerner","charochkina","A5793","-","-","-","-2.49","Log unit","-2.49","Log unit","Nc1c(ccc(c1)N(=O)=O)N(=O)=O","4","","{nr2=[4, 5, 10]}","c(cc(c1N)N(=O)=O)c(c1)N(=O)=O","nr2","25.0","?C","true","-","RZKBRXDCJZLQLI-UHFFFAOYSA"
"NC1=CC(=C(C=C1)N(=O)=O)N(=O)=O","-","R945319","M36738","-","-","3,4-dinitro-aniline","-","Koerner","charochkina","A5793","-","-","-","-1.2","Log unit","-1.2","Log unit","N(=O)(=O)c1ccc(cc1N(=O)=O)N","3","","{nr2=[3, 7, 12]}","c(cc(N(=O)=O)c1N(=O)=O)c(c1)N","nr2","25.0","?C","true","-","IPZPZSUDOPUDPM-UHFFFAOYSA"
"NC1=CC(=CC(=C1)N(=O)=O)N(=O)=O","-","R945320","M6917","-","-","3,5-dinitro-aniline","-","Koerner","charochkina","A5793","-","-","-","0.245","Log unit","0.245","Log unit","N(=O)(=O)c1cc(cc(c1)N(=O)=O)N","4","","{nr2=[4, 7, 10]}","c(c(cc1N(=O)=O)N)c(c1)N(=O)=O","nr2","25.0","?C","true","-","MPBZUKLDHPOCLS-UHFFFAOYSA"
"NC1=CC(=CC(=C1)N(=O)=O)N(=O)=O","-","R945321","M6917","-","-","3,5-dinitroaniline","-","Koerner","charochkina","A5793","-","-","-","0.229","Log unit","0.229","Log unit","Nc1cc(cc(c1)N(=O)=O)N(=O)=O","7","","{nr2=[4, 7, 10]}","c(c(cc1N(=O)=O)N)c(c1)N(=O)=O","nr2","25.0","?C","true","-","MPBZUKLDHPOCLS-UHFFFAOYSA"
"C1=CC=C(C=C1)N(C1=CC=CC=C1)C1=CC=CC=C1","-","R945322","M22271","-","-","N,N-Diphenylaniline","-","Koerner","charochkina","A5793","-","-","-","-5.0","Log unit","-5.0","Log unit","N(c1ccccc1)(c1ccccc1)c1ccccc1","4","","{nr2=[4]}","c(ccc1N(-c(ccc2)cc2)-c(ccc3)cc3)cc1","nr2","25.0","?C","","-","ODHXBMXNKOYIBV-UHFFFAOYSA"
"CCCN(CCC)C1=CC=CC=C1","-","R945323","M26498","-","-","N,N-Dipropylaniline","-","Koerner","charochkina","A5793","-","-","-","5.68","Log unit","5.68","Log unit","N(c1ccccc1)(CCC)CCC","4","","{nr2=[4]}","c(ccc1N(CCC)CCC)cc1","nr2","25.0","?C","","-","MMFBQHXDINNBMW-UHFFFAOYSA"
"CCOC1=CC=CC=C1N","-","R945324","M18117","-","-","2-ethoxy-aniline","-","Koerner","charochkina","A5793","-","-","-","4.43","Log unit","4.43","Log unit","Nc1ccccc1OCC","9","","{nr2=[9]}","c(ccc1OCC)cc1N","nr2","25.0","?C","","-","ULHFFAFDSSHFDA-UHFFFAOYSA"
"CCOC1=CC=CC(N)=C1","-","R945325","M43115","-","-","3-ethoxy-aniline","-","Koerner","charochkina","A5793","-","-","-","4.155","Log unit","4.155","Log unit","Nc1cccc(c1)OCC","4","","{nr2=[4]}","c(cc(c1)N)cc1OCC","nr2","25.0","?C","","-","WEZAHYDFZNTGKE-UHFFFAOYSA"
"NC1CCCC1O","-","R945125","M1107034","-","-","1-amino-2-hydroxycyclopentane","-","Koerner","charochkina","A5793","-","-","-","9.28","Log unit","9.28","Log unit","NC1C(O)CCC1","5","","{nr2=[5], oh=[0]}","OC(CC1)C(N)C1","nr2","25.0","?C","","-","JFFOUICIRBXFRC-UHFFFAOYSA"
"CNC1CCCC1O","-","R945126","M1107035","-","-","1-hydroxy-2-methylaminocyclopentane","-","Koerner","charochkina","A5793","-","-","-","10.06","Log unit","10.06","Log unit","N(C1C(O)CCC1)C","6","","{nr2=[6], oh=[0]}","OC(CC1)C(C1)NC","nr2","25.0","?C","","-","YAEYCYRQJINORB-UHFFFAOYSA"
"CNC1CCCC1","-","R945127","M1107036","-","-","methylaminocyclopentane","-","Koerner","charochkina","A5793","-","-","-","10.85","Log unit","10.85","Log unit","N(C1CCCC1)C","5","","{nr2=[5]}","C(CC1)CC1NC","nr2","25.0","?C","","-","KKTBUCVHSCATGB-UHFFFAOYSA"
"NC1CCCCC1","-","R945128","M8396","-","-","Aminocyclohexane","-","Koerner","charochkina","A5793","-","-","-","10.83","Log unit","10.83","Log unit","NC1CCCCC1","0","","{nr2=[0]}","NC(CCC1)CC1","nr2","25.0","?C","","-","PAFZNILMFXTMIY-UHFFFAOYSA"
"NC1CCCCC1Cl","-","R945129","M1018193","-","-","1-amino-2-chlorocyclohexane","-","Koerner","charochkina","A5793","-","-","-","9.49","Log unit","9.49","Log unit","NC1C(Cl)CCCC1","6","","{nr2=[6]}","ClC(CCC1)C(N)C1","nr2","25.0","?C","","-","RTZWBJIYBWNJMR-UHFFFAOYSA"
"NC1CCCCC1O","-","R945130","M740577","-","-","1-amino-2-hydroxycyclohexane","-","Koerner","charochkina","A5793","-","-","-","9.53","Log unit","9.53","Log unit","NC1C(O)CCCC1","6","","{nr2=[6], oh=[0]}","OC(CCC1)C(N)C1","nr2","25.0","?C","","-","PQMCFTMVQORYJC-UHFFFAOYSA"
"CC1CCC(O)C(N)C1","-","R945131","M1107037","-","-","1-amino-2-hydroxy-5-methylcyclohexane","-","Koerner","charochkina","A5793","-","-","-","9.41","Log unit","9.41","Log unit","NC1C(O)CCC(C)C1","7","","{nr2=[7], oh=[0]}","OC(CCC1C)C(N)C1","nr2","25.0","?C","","-","YUUPBWOVKNLYIW-UHFFFAOYSA"
"CC1CCCC(O)C1N","-","R945132","M1107038","-","-","1-amino-2-hydroxy-6-methylcyclohexane","-","Koerner","charochkina","A5793","-","-","-","9.39","Log unit","9.39","Log unit","NC1C(O)CCCC1C","6","","{nr2=[6], oh=[0]}","OC(CCC1)C(N)C1C","nr2","25.0","?C","","-","SODIDXLDSFHMMZ-UHFFFAOYSA"
"CC(C)C1CCC(C)CC1N","-","R945133","M80271","-","-","trans-1-amino-2-isopropyl-5-methylcyclohexane","-","Koerner","charochkina","A5793","-","-","-","10.555","Log unit","10.555","Log unit","NC1CC(CCC1C(C)C)C","0","","{nr2=[0]}","NC(CC(C1)C)C(C1)C(C)C","nr2","25.0","?C","","-","RBMUAGDCCJDQLE-UHFFFAOYSA"
"NCC1CCCCC1","-","R945134","M27979","-","-","aminomethylcyclohexane","-","Koerner","charochkina","A5793","-","-","-","10.54","Log unit","10.54","Log unit","NCC1CCCCC1","5","","{nr2=[5]}","C(CCC1CN)CC1","nr2","25.0","?C","","-","AVKNGPAMCBSNSO-UHFFFAOYSA"
"CC1(N)CCCCC1","-","R945135","M1107039","-","-","1-amino-1-methylcyclohexane","-","Koerner","charochkina","A5793","-","-","-","10.36","Log unit","10.36","Log unit","NC1(CCCCC1)C","4","","{nr2=[4]}","C(CCC1(N)C)CC1","nr2","25.0","?C","","-","YDBHSDRXUCPTQQ-UHFFFAOYSA"
"CC1CCCCC1N","-","R945136","M78115","-","-","trans-1-amino-2-methylcyclohexane","-","Koerner","charochkina","A5793","-","-","-","10.56","Log unit","10.56","Log unit","NC1CCCCC1C","0","","{nr2=[0]}","NC(CCC1)C(C1)C","nr2","25.0","?C","","-","FEUISMYEFPANSS-UHFFFAOYSA"
"CC1CCCC(N)C1","-","R945137","M77894","-","-","1-amino-3-methylcyclohexane","-","Koerner","charochkina","A5793","-","-","-","10.61","Log unit","10.61","Log unit","NC1CCCC(C1)C","0","","{nr2=[0]}","NC(CCC1)CC1C","nr2","25.0","?C","","-","JYDYHSHPBDZRPU-UHFFFAOYSA"
"CC1CCC(N)CC1","-","R945138","M77001","-","-","trans-1-amino-4-methylcyclohexane","-","Koerner","charochkina","A5793","-","-","-","10.48","Log unit","10.48","Log unit","NC1CCC(C)CC1","0","","{nr2=[0]}","NC(CCC1C)CC1","nr2","25.0","?C","","-","KSMVBYPXNKCPAJ-UHFFFAOYSA"
"CCCC1CCCCC1N","-","R945139","M1107040","-","-","(2-amino)propylcyclohexane","-","Koerner","charochkina","A5793","-","-","-","10.14","Log unit","10.14","Log unit","NC1CCCCC1CCC","0","","{nr2=[0]}","NC(CCC1)C(C1)CCC","nr2","25.0","?C","","-","DWVNXHKKIRXAOL-UHFFFAOYSA"
"CC(C)(C)NC1CCCCC1","-","R945140","M88806","-","-","t-butylaminocyclohexane","-","Koerner","charochkina","A5793","-","-","-","11.23","Log unit","11.23","Log unit","N(C1CCCCC1)C(C)(C)C","4","","{nr2=[4]}","C(CCC1NC(C)(C)C)CC1","nr2","25.0","?C","","-","MTEWAFVECQBILW-UHFFFAOYSA"
"CNC1CCCCC1Cl","-","R945141","M1107041","-","-","1-chloro-2-methylaminocyclohexane","-","Koerner","charochkina","A5793","-","-","-","9.85","Log unit","9.85","Log unit","N(C1C(Cl)CCCC1)C","7","","{nr2=[7]}","ClC(CCC1)C(C1)NC","nr2","25.0","?C","","-","OVNUJIAMZODLRD-UHFFFAOYSA"
"NC1CCCCC1N","-","R945142","M23334","-","-","trans-1,2-Diaminocyclohexane","-","Koerner","charochkina","A5793","-","-","-","9.64","Log unit","9.64","Log unit","NC1CCCCC1N","0","","{nr2=[0, 6]}","NC(CCC1)C(N)C1","nr2","25.0","?C","true","-","SSJXIUAHEKJCMH-UHFFFAOYSA"
"CN(C)C1CCCCC1","-","R945143","M18267","-","-","Dimethylaminocyclohexane","-","Koerner","charochkina","A5793","-","-","-","10.72","Log unit","10.72","Log unit","N(C1CCCCC1)(C)C","4","","{nr2=[4]}","C(CCC1N(C)C)CC1","nr2","25.0","?C","","-","SVYKKECYCPFKGB-UHFFFAOYSA"
"CN(C)C1CCCCC1O","-","R945144","M84161","-","-","1-dimethylamino-2-hydroxycyclohexane","-","Koerner","charochkina","A5793","-","-","-","10.32","Log unit","10.32","Log unit","N(C1C(O)CCCC1)(C)C","7","","{nr2=[7], oh=[0]}","OC(CCC1)C(C1)N(C)C","nr2","25.0","?C","","-","UFUVLAQFZSUWHR-UHFFFAOYSA"
"CC(C)NCC(O)C1CCC(O)CC1","-","R945145","M43373","-","-","1-hydroxy-4-(1-hydroxy-2-isopropylamino)ethylcyclohexane","-","Koerner","charochkina","A5793","-","-","-","10.23","Log unit","10.23","Log unit","N(CC(C1CCC(O)CC1)O)C(C)C","8","","{nr2=[8], oh=[0, 6]}","OC(CCC1C(O)CNC(C)C)CC1","nr2","25.0","?C","","-","VZSFNWNPGOTXER-UHFFFAOYSA"
"CNC1CCCCC1","-","R945146","M18330","-","-","methylaminocyclohexane","-","Koerner","charochkina","A5793","-","-","-","11.04","Log unit","11.04","Log unit","N(C1CCCCC1)C","4","","{nr2=[4]}","C(CCC1NC)CC1","nr2","25.0","?C","","-","XTUVJUMINZSXGF-UHFFFAOYSA"
"CNC(C)CC1CCCCC1","-","R945147","M18365","-","-","(2-methylamino)propylcyclohexane","-","Koerner","charochkina","A5793","-","-","-","10.52","Log unit","10.52","Log unit","N(C(CC1CCCCC1)C)C","6","","{nr2=[6]}","C(CCC1CC(NC)C)CC1","nr2","25.0","?C","","-","JCRIVQIOJSSCQD-UHFFFAOYSA"
"CCC(C)CNC1CCCCC1","-","R945148","M1107042","-","-","2-(2-methyl)butylaminocyclohexane","-","Koerner","charochkina","A5793","-","-","-","11.1","Log unit","11.1","Log unit","N(C1CCCCC1)CC(C)CC","4","","{nr2=[4]}","C(CCC1NCC(C)CC)CC1","nr2","25.0","?C","","-","WKCVIRCUDKMANY-UHFFFAOYSA"
"NC1CCCC=C1","-","R945149","M1107043","-","-","3-aminocyclohex-1-ene","-","Koerner","charochkina","A5793","-","-","-","10.42","Log unit","10.42","Log unit","NC1C=CCCC1","3","","{nr2=[3]}","C(=CC(N)C1)CC1","nr2","25.0","?C","","-","ACYMGUSQXQEHGA-UHFFFAOYSA"
"CC1=CCCCC1N","-","R945150","M1107044","-","-","3-amino-2-methylcyclohex-1-ene","-","Koerner","charochkina","A5793","-","-","-","10.37","Log unit","10.37","Log unit","NC1C(=CCCC1)C","7","","{nr2=[7]}","C(CCC1)=C(C)C1N","nr2","25.0","?C","","-","UOADZOTZRYGAKT-UHFFFAOYSA"
"NC1CCCCCC1O","-","R945151","M1107045","-","-","1-amino-2-hydroxycycloheptane","-","Koerner","charochkina","A5793","-","-","-","9.25","Log unit","9.25","Log unit","NC1C(O)CCCCC1","6","","{nr2=[6], oh=[0]}","OC(CCC1)C(N)CC1","nr2","25.0","?C","","-","ZWOFTVSNNFYPAB-UHFFFAOYSA"
"NC1CCCCCC1N","-","R945152","M1107046","-","-","1,2-diaminocycloheptane","-","Koerner","charochkina","A5793","-","-","-","10.18","Log unit","10.18","Log unit","NC1CCCCCC1N","0","","{nr2=[0, 6]}","NC(CCC1)C(N)CC1","nr2","25.0","?C","true","-","DBBUVLSRTWYISN-UHFFFAOYSA"
"CC1(C)C2CCC1(CN)CC2","-","R945153","M1107047","-","-","bornylamine","-","Koerner","charochkina","A5793","-","-","-","10.17","Log unit","10.17","Log unit","NCC12CCC(CC1)C2(C)C","5","","{nr2=[5]}","C(CC1(C2)CN)C(C2)C1(C)C","nr2","25.0","?C","","-","YQFPWSOMNJTJTF-UHFFFAOYSA"
"NC1=CC=CC=C1","-","R945154","M8413","-","-","aniline","-","Koerner","charochkina","A5793","-","-","-","4.6215","Log unit","4.6215","Log unit","Nc1ccccc1","4","","{nr2=[4]}","c(ccc1N)cc1","nr2","25.0","?C","","-","PAYRUJLWNCNPSJ-UHFFFAOYSA"
"CC(=O)C1=CC=CC=C1N","-","R945155","M21627","-","-","2-acetyl-aniline","-","Koerner","charochkina","A5793","-","-","-","2.31","Log unit","2.31","Log unit","Nc1ccccc1C(=O)C","9","","{nr2=[9]}","c(ccc1C(=O)C)cc1N","nr2","25.0","?C","","-","GTDQGKWDWVUKTI-UHFFFAOYSA"
"C=CCNC1=CC=CC=C1","-","R945156","M21997","-","-","N-Allylaniline","-","Koerner","charochkina","A5793","-","-","-","4.17","Log unit","4.17","Log unit","N(c1ccccc1)CC=C","4","","{nr2=[4]}","c(ccc1NCC=C)cc1","nr2","25.0","?C","","-","LQFLWKPCQITJIH-UHFFFAOYSA"
"CC(=O)C1=C(N)C=CC(=C1)N(=O)=O","-","R945157","M1107048","-","-","2-acetyl-4-nitroaniline","-","Koerner","charochkina","A5793","-","-","-","-0.14","Log unit","-0.14","Log unit","Nc1c(C(=O)C)cc(N(=O)=O)cc1","1","","{nr2=[1, 8]}","c1(N)c(C(=O)C)cc(N(=O)=O)cc1","nr2","25.0","?C","true","-","WYSBWHYLQMVOOL-UHFFFAOYSA"
"CC(=O)C1=CC(=C(N)C=C1)N(=O)=O","-","R945158","M1107049","-","-","4-acetyl-2-nitroaniline","-","Koerner","charochkina","A5793","-","-","-","-2.85","Log unit","-2.85","Log unit","Nc1c(N(=O)=O)cc(C(=O)C)cc1","1","","{nr2=[1, 3]}","c1(N)c(N(=O)=O)cc(C(=O)C)cc1","nr2","25.0","?C","true","-","VEIXVSPCPGWULB-UHFFFAOYSA"
"NC1=CC=CC=C1N","-","R945159","M3150","-","-","2-amino-aniline","-","Koerner","charochkina","A5793","-","-","-","4.17","Log unit","4.17","Log unit","Nc1ccccc1N","4","","{nr2=[4, 7]}","c(ccc1N)cc1N","nr2","25.0","?C","true","-","GEYOCULIXLDCMW-UHFFFAOYSA"
"NC1=CC=CC=C1[NH3+]","-","R945160","M3150","-","-","2-amino-aniline","-","Koerner","charochkina","A5793","-","-","-","1.6","Log unit","1.6","Log unit","Nc1ccccc1[NH2+]","4","","{nr2=[4]}","c(ccc1N)cc1[N+1]","nr2","25.0","?C","","-","GEYOCULIXLDCMW-UHFFFAOYSA"
"CC1=CC(N)=C([NH3+])C=C1","-","R945161","M20897","-","-","2-amino-4-methylaniline","-","Koerner","charochkina","A5793","-","-","-","0.98","Log unit","0.98","Log unit","Nc1c(ccc(c1)C)[NH2+]","5","","{nr2=[5]}","c(cc([N+1])c1N)c(c1)C","nr2","25.0","?C","","-","DGRGLKZMKWPMOH-UHFFFAOYSA"
"NC1=CC(N)=CC=C1","-","R945162","M18660","-","-","3-amino-aniline","-","Koerner","charochkina","A5793","-","-","-","4.7","Log unit","4.7","Log unit","Nc1cccc(c1)N","4","","{nr2=[4, 7]}","c(cc(c1)N)cc1N","nr2","25.0","?C","true","-","WZCQRUWWHSTZEM-UHFFFAOYSA"