"SMILES","CASRN","RECORDID","MOLECULEID","EXTERNALID","N","NAME","NAME","INTRODUCER","MODIFIER","ARTICLEID","PUBMEDID","PAGE","TABLE","pKa (smiles as ob. cond.) {measured}","UNIT {pKa (smiles as ob. cond.)}","pKa (smiles as ob. cond.) {measured, converted}","UNIT {pKa (smiles as ob. cond.)}","Ionizable centre (smiles)","IC group detected","AtomNR of IC","groupsAndICs","IC smiles given","IC group given","Temperature","UNIT {Temperature}","MultiGroupDetection","COMMENTS","INCHI_KEY"
"CNCC=C","-","R945030","M22862","-","-","1-methylaminoprop-2-ene","-","Koerner","charochkina","A5793","-","-","-","10.11","Log unit","10.11","Log unit","N(C)CC=C","0","","{nr2=[0]}","N(C)CC=C","nr2","25.0","?C","","-","IOXXVNYDGIXMIP-UHFFFAOYSA"
"CN(C)CCCCC(C)=O","-","R945031","M1107008","-","-","1-acetyl-4-dimethylaminobutane","-","Koerner","charochkina","A5793","-","-","-","9.62","Log unit","9.62","Log unit","N(CCCCC(=O)C)(C)C","7","","{nr2=[7]}","O=C(C)CCCCN(C)C","nr2","25.0","?C","","-","QEWONZQIQAAOGH-UHFFFAOYSA"
"CCCCN","-","R945032","M3999","-","-","1-AMINO-BUTANE","-","Koerner","charochkina","A5793","-","-","-","10.7485","Log unit","10.7485","Log unit","NCCCC","0","","{nr2=[0]}","NCCCC","nr2","25.0","?C","","-","HQABUPZFAYXKJW-UHFFFAOYSA"
"CCC(C)N","-","R945033","M775","-","-","2-Aminobutane","-","Koerner","charochkina","A5793","-","-","-","10.56","Log unit","10.56","Log unit","NC(C)CC","0","","{nr2=[0]}","NC(C)CC","nr2","25.0","?C","","-","BHRZNVHARXXAHW-UHFFFAOYSA"
"CCN(CC)CCCCN","-","R945034","M82973","-","-","1-amino-4-diethylaminobutane","-","Koerner","charochkina","A5793","-","-","-","10.3","Log unit","10.3","Log unit","NCCCCN(CC)CC","0","","{nr2=[0, 5]}","NCCCCN(CC)CC","nr2","25.0","?C","true","-","JILXUIANNUALRZ-UHFFFAOYSA"
"NCCCCO","-","R945035","M845","-","-","1-amino-4-hydroxybutane","-","Koerner","charochkina","A5793","-","-","-","10.35","Log unit","10.35","Log unit","NCCCCO","5","","{nr2=[5], oh=[0]}","OCCCCN","nr2","25.0","?C","","-","BLFRQYKZFKYQLO-UHFFFAOYSA"
"CCC(N)CO","-","R945036","M18166","-","-","2-Amino-1-hydroxybutane","-","Koerner","charochkina","A5793","-","-","-","9.535","Log unit","9.535","Log unit","NC(CO)CC","3","","{nr2=[3], oh=[0]}","OCC(N)CC","nr2","25.0","?C","","-","JCBPETKZIGVZRE-UHFFFAOYSA"
"CCC(N)(CO)OC","-","R945037","M1107009","-","-","2-amino-1-hydroxy-2-hydroxymethylbutane","-","Koerner","charochkina","A5793","-","-","-","8.8","Log unit","8.8","Log unit","NC(CO)(OC)CC","5","","{nr2=[5], oh=[0]}","OCC(OC)(N)CC","nr2","25.0","?C","","-","ZJHSMKXZQVBULB-UHFFFAOYSA"
"CC(=NO)C(C)(C)N","-","R945038","M1107010","-","-","2-amino-3-hydroxyimino-2-methylbutane","-","Koerner","charochkina","A5793","-","-","-","9.12","Log unit","9.12","Log unit","NC(C(=NO)C)(C)C","5","","{neth=[0], nr2=[5], oh=[0]}","ON=C(C)C(N)(C)C","nr2","25.0","?C","","-","JVMJGSVRQJSDHL-UHFFFAOYSA"
"CCC(C)CN","-","R945039","M11748","-","-","1-Amino-2-methylbutane","-","Koerner","charochkina","A5793","-","-","-","10.64","Log unit","10.64","Log unit","NCC(C)CC","0","","{nr2=[0]}","NCC(C)CC","nr2","25.0","?C","","-","VJROPLWGFCORRM-UHFFFAOYSA"
"CCCCCN","-","R945040","M2158","-","-","1-Amino-3-methylbutane","-","Koerner","charochkina","A5793","-","-","-","10.655","Log unit","10.655","Log unit","NCCCCC","0","","{nr2=[0]}","NCCCCC","nr2","25.0","?C","","-","DPBLXKKOBLCELK-UHFFFAOYSA"
"CCC(C)(C)N","-","R945041","M3134","-","-","2-amino-2-methylbutane","-","Koerner","charochkina","A5793","-","-","-","10.785","Log unit","10.785","Log unit","NC(C)(C)CC","0","","{nr2=[0]}","NC(C)(C)CC","nr2","25.0","?C","","-","GELMWIVBBPAMIO-UHFFFAOYSA"
"NCCCC(Cl)(Cl)Cl","-","R945042","M1107011","-","-","1-amino-4,4,4-trichlorobutane","-","Koerner","charochkina","A5793","-","-","-","9.93","Log unit","9.93","Log unit","NCCCC(Cl)(Cl)Cl","7","","{nr2=[7]}","ClC(Cl)(Cl)CCCN","nr2","25.0","?C","","-","VPCJGCZSMXTDOS-UHFFFAOYSA"
"CCCCN(CCCl)CCCl","-","R945043","M39479","-","-","1-bis(2-chloroethyl)aminobutane","-","Koerner","charochkina","A5793","-","-","-","6.78","Log unit","6.78","Log unit","N(CCCl)(CCCl)CCCC","3","","{nr2=[3]}","ClCCN(CCCl)CCCC","nr2","25.0","?C","","-","SXPGFJZLDDFUHA-UHFFFAOYSA"
"NCC(Cl)=C(Cl)Cl","-","R945044","M1107012","-","-","1-amino-2,3,3-trichloro-prop-2-ene","-","Koerner","charochkina","A5793","-","-","-","6.72","Log unit","6.72","Log unit","NCC(=C(Cl)Cl)Cl","6","","{nr2=[6]}","ClC(Cl)=C(Cl)CN","nr2","25.0","?C","","-","HFYXFTFJWIJPNH-UHFFFAOYSA"
"CCCCN(CC(C)O)CC(C)O","-","R945045","M1107013","-","-","1-(bis-2-hydroxypropyl)aminobutane","-","Koerner","charochkina","A5793","-","-","-","9.3","Log unit","9.3","Log unit","N(CC(O)C)(CCCC)CC(O)C","4","","{nr2=[4], oh=[0, 11]}","OC(C)CN(CCCC)CC(O)C","nr2","25.0","?C","","-","UMXUEZVHHYJJQP-UHFFFAOYSA"
"CCCCNCCCC","-","R945046","M5214","-","-","1-butylaminobutane","-","Koerner","charochkina","A5793","-","-","-","11.32","Log unit","11.32","Log unit","N(CCCC)CCCC","0","","{nr2=[0]}","N(CCCC)CCCC","nr2","25.0","?C","","-","JQVDAXLFBXTEQA-UHFFFAOYSA"
"CCC(C)NC(C)CC","-","R945047","M22819","-","-","2-s-butylaminobutane","-","Koerner","charochkina","A5793","-","-","-","11.01","Log unit","11.01","Log unit","N(C(C)CC)C(C)CC","0","","{nr2=[0]}","N(C(C)CC)C(C)CC","nr2","25.0","?C","","-","OBYVIBDTOCAXSN-UHFFFAOYSA"
"CCN(CC)CCCCC#N","-","R945048","M1107014","-","-","1-cyano-4-diethylaminobutane","-","Koerner","charochkina","A5793","-","-","-","10.08","Log unit","10.08","Log unit","N(CCCCC#N)(CC)CC","6","","{nr2=[6]}","N#CCCCCN(CC)CC","nr2","25.0","?C","","-","RLHLKRQJVSVNIQ-UHFFFAOYSA"
"CC(CC(C#N)(C1=CC=CC=C1)C1=CC=CC=C1)N(C)C","-","R945049","M65582","-","-","1-cyano-3-dimethylamino-1,1-diphenylbutane","-","Koerner","charochkina","A5793","-","-","-","8.26","Log unit","8.26","Log unit","N(C(CC(c1ccccc1)(c1ccccc1)C#N)C)(C)C","15","","{nr2=[15]}","c(ccc1C(c(ccc2)cc2)(C#N)CC(N(C)C)C)cc1","nr2","25.0","?C","","-","GJJQIGFCGLPOQK-UHFFFAOYSA"
"CC([NH3+])CCN","-","R945050","M22034","-","-","1,3-Diaminobutane","-","Koerner","charochkina","A5793","-","-","-","8.72","Log unit","8.72","Log unit","NCCC([NH3+])C","0","","{nr2=[0]}","NCCC([N+1])C","nr2","25.0","?C","","-","RGTXVXDNHPWPHH-UHFFFAOYSA"
"NCCCCN","-","R945051","M18732","-","-","1,4-diaminobutane","-","Koerner","charochkina","A5793","-","-","-","10.5","Log unit","10.5","Log unit","NCCCCN","0","","{nr2=[0, 5]}","NCCCCN","nr2","25.0","?C","true","-","KIDHWZJUCRJVML-UHFFFAOYSA"
"NCCCC[NH3+]","-","R945052","M18732","-","-","1,4-diaminobutane","-","Koerner","charochkina","A5793","-","-","-","9.65","Log unit","9.65","Log unit","NCCCC[NH3+]","0","","{nr2=[0]}","NCCCC[N+1]","nr2","25.0","?C","","-","KIDHWZJUCRJVML-UHFFFAOYSA"
"CC(N)C(C)N","-","R945053","M1107015","-","-","2,3-diaminobutane","-","Koerner","charochkina","A5793","-","-","-","10.0","Log unit","10.0","Log unit","NC(C)C(N)C","0","","{nr2=[0, 4]}","NC(C)C(N)C","nr2","25.0","?C","true","-","GHWVXCQZPNWFRO-UHFFFAOYSA"
"CC(N)C(C)[NH3+]","-","R945054","M1107015","-","-","2,3-diaminobutane","-","Koerner","charochkina","A5793","-","-","-","6.92","Log unit","6.92","Log unit","NC(C([NH3+])C)C","4","","{nr2=[4]}","[N+1]C(C)C(N)C","nr2","25.0","?C","","-","GHWVXCQZPNWFRO-UHFFFAOYSA"
"CC(C)(N)C(C)(C)N","-","R945055","M1107016","-","-","2,3-diamino-2,3-dimethylbutane","-","Koerner","charochkina","A5793","-","-","-","9.87","Log unit","9.87","Log unit","NC(C)(C)C(N)(C)C","0","","{nr2=[0, 5]}","NC(C)(C)C(N)(C)C","nr2","25.0","?C","true","-","CGCVLTOGUMLHNP-UHFFFAOYSA"
"CC(C)(N)C(C)(C)[NH3+]","-","R945056","M1107016","-","-","2,3-diamino-2,3-dimethylbutane","-","Koerner","charochkina","A5793","-","-","-","6.9","Log unit","6.9","Log unit","NC(C([NH3+])(C)C)(C)C","5","","{nr2=[5]}","[N+1]C(C)(C)C(N)(C)C","nr2","25.0","?C","","-","CGCVLTOGUMLHNP-UHFFFAOYSA"
"CCC([NH3+])(CC)CN","-","R945057","M1107017","-","-","1,2-diamino-2-ethylbutane","-","Koerner","charochkina","A5793","-","-","-","6.62","Log unit","6.62","Log unit","NCC([NH3+])(CC)CC","0","","{nr2=[0]}","NCC([N+1])(CC)CC","nr2","25.0","?C","","-","ZVZPXKGMHIJPET-UHFFFAOYSA"
"CCCCN(CCCC)CCCC","-","R945058","M4483","-","-","1-dibutylaminobutane","-","Koerner","charochkina","A5793","-","-","-","10.485","Log unit","10.485","Log unit","N(CCCC)(CCCC)CCCC","0","","{nr2=[0]}","N(CCCC)(CCCC)CCCC","nr2","25.0","?C","","-","IMFACGCPASFAPR-UHFFFAOYSA"
"CCCCN(C)C","-","R945059","M1999","-","-","1-dimethylaminobutane","-","Koerner","charochkina","A5793","-","-","-","10.19","Log unit","10.19","Log unit","N(C)(C)CCCC","0","","{nr2=[0]}","N(C)(C)CCCC","nr2","25.0","?C","","-","DJEQZVQFEPKLOY-UHFFFAOYSA"
"CCC(C)N(C)C","-","R945060","M1107018","-","-","2-dimethylaminobutane","-","Koerner","charochkina","A5793","-","-","-","10.57","Log unit","10.57","Log unit","N(C)(C)C(C)CC","0","","{nr2=[0]}","N(C)(C)C(C)CC","nr2","25.0","?C","","-","USSPHSVODLAWSA-UHFFFAOYSA"
"CC(CC(C1=CC=CC=C1)C1=CC=CC=C1)N(C)C","-","R945061","M35507","-","-","2-dimethylamino-4,4-diphenylbutane","-","Koerner","charochkina","A5793","-","-","-","9.43","Log unit","9.43","Log unit","N(C(CC(c1ccccc1)c1ccccc1)C)(C)C","13","","{nr2=[13]}","c(ccc1C(c(ccc2)cc2)CC(N(C)C)C)cc1","nr2","25.0","?C","","-","NSHMKXVHJBBKTN-UHFFFAOYSA"
"CCC(=O)C(CC(C)N(C)C)(C1=CC=CC=C1)C1=CC=CC=C1","-","R945062","M11346","-","-","2-dimethylamino-4-ethylcarbonyl-4,4-diphenylbutane","-","Koerner","charochkina","A5793","-","-","-","9.53","Log unit","9.53","Log unit","N(C(CC(c1ccccc1)(c1ccccc1)C(=O)CC)C)(C)C","17","","{nr2=[17]}","c(ccc1C(c(ccc2)cc2)(C(=O)CC)CC(N(C)C)C)cc1","nr2","25.0","?C","","-","USSIQXCVUWKGNF-UHFFFAOYSA"
"CC(C)CCNCCC(C)C","-","R945063","M21542","-","-","1-isoamylamino-3-methylbutane","-","Koerner","charochkina","A5793","-","-","-","10.93","Log unit","10.93","Log unit","N(CCC(C)C)CCC(C)C","0","","{nr2=[0]}","N(CCC(C)C)CCC(C)C","nr2","25.0","?C","","-","SPVVMXMTSODFPU-UHFFFAOYSA"
"CC(C=C(C1=CC=CC=C1)C1=CC=CC=C1)N(C)C","-","R945064","M124193","-","-","3-dimethylamino-1,1-diphenylbut-1-ene","-","Koerner","charochkina","A5793","-","-","-","9.21","Log unit","9.21","Log unit","N(C(C=C(c1ccccc1)c1ccccc1)C)(C)C","13","","{nr2=[13]}","c(ccc1C(c(ccc2)cc2)=CC(N(C)C)C)cc1","nr2","25.0","?C","","-","QZWMYBWMOFESDA-UHFFFAOYSA"
"CCCCCN","-","R945065","M2158","-","-","1-Aminopentane","-","Koerner","charochkina","A5793","-","-","-","10.635","Log unit","10.635","Log unit","NCCCCC","0","","{nr2=[0]}","NCCCCC","nr2","25.0","?C","","-","DPBLXKKOBLCELK-UHFFFAOYSA"
"CCC(N)CC","-","R945066","M8755","-","-","3-AMINOPENTANE","-","Koerner","charochkina","A5793","-","-","-","10.42","Log unit","10.42","Log unit","NC(CC)CC","0","","{nr2=[0]}","NC(CC)CC","nr2","25.0","?C","","-","PQPFFKCJENSZKL-UHFFFAOYSA"
"NCCCCCBr","-","R945067","M1107019","-","-","1-amino-5-bromopentane","-","Koerner","charochkina","A5793","-","-","-","9.62","Log unit","9.62","Log unit","NCCCCCBr","6","","{nr2=[6]}","BrCCCCCN","nr2","25.0","?C","","-","HYMLYXZEQWBTBE-UHFFFAOYSA"
"CCN(CC)CCCC(C)[NH3+]","-","R945068","M19538","-","-","2-Amino-5-diethylaminopentane","-","Koerner","charochkina","A5793","-","-","-","9.55","Log unit","9.55","Log unit","N(CCCC([NH3+])C)(CC)CC","6","","{nr2=[6]}","[N+1]C(C)CCCN(CC)CC","nr2","25.0","?C","","-","CAPCBAYULRXQAN-UHFFFAOYSA"
"CCCC(N)C(C)C","-","R945069","M1107020","-","-","3-Amino-2,4-dimethylpentane","-","Koerner","charochkina","A5793","-","-","-","10.23","Log unit","10.23","Log unit","NC(CCC)C(C)C","0","","{nr2=[0]}","NC(CCC)C(C)C","nr2","25.0","?C","","-","BAXIQGRSUXFBCH-UHFFFAOYSA"
"CCC(N)(CC)CC","-","R945070","M1107021","-","-","3-Amino-2,4-dimethylpentane","-","Koerner","charochkina","A5793","-","-","-","10.59","Log unit","10.59","Log unit","NC(CC)(CC)CC","0","","{nr2=[0]}","NC(CC)(CC)CC","nr2","25.0","?C","","-","JLEIRAYWBMNMKU-UHFFFAOYSA"
"NCCCCCO","-","R945071","M6391","-","-","1-amino-5-hydroxypentane","-","Koerner","charochkina","A5793","-","-","-","10.46","Log unit","10.46","Log unit","NCCCCCO","6","","{nr2=[6], oh=[0]}","OCCCCCN","nr2","25.0","?C","","-","LQGKDMHENBFVRC-UHFFFAOYSA"
"CCC(C)(N)CC","-","R945072","M1107022","-","-","3-amino-3-methylpentane","-","Koerner","charochkina","A5793","-","-","-","10.63","Log unit","10.63","Log unit","NC(C)(CC)CC","0","","{nr2=[0]}","NC(C)(CC)CC","nr2","25.0","?C","","-","VQMPTVQCADWACQ-UHFFFAOYSA"
"CC(C)(C)CC(C)(C)N","-","R945073","M9156","-","-","2-Amino-2,4,4-trimethylpentane","-","Koerner","charochkina","A5793","-","-","-","10.785","Log unit","10.785","Log unit","NC(C)(C)CC(C)(C)C","0","","{nr2=[0]}","NC(C)(C)CC(C)(C)C","nr2","25.0","?C","","-","QIJIUJYANDSEKG-UHFFFAOYSA"
"NCCCCC(Cl)(Cl)Cl","-","R945074","M1107023","-","-","1-amino-5,5,5-trichloro-pentane","-","Koerner","charochkina","A5793","-","-","-","10.12","Log unit","10.12","Log unit","NCCCCC(Cl)(Cl)Cl","8","","{nr2=[8]}","ClC(Cl)(Cl)CCCCN","nr2","25.0","?C","","-","BAGJUUIEBUNDNW-UHFFFAOYSA"
"CCCCCNCCCCC","-","R945075","M26193","-","-","1-amylaminopentane","-","Koerner","charochkina","A5793","-","-","-","11.16","Log unit","11.16","Log unit","N(CCCCC)CCCCC","0","","{nr2=[0]}","N(CCCCC)CCCCC","nr2","25.0","?C","","-","JACMPVXHEARCBO-UHFFFAOYSA"
"CCCCCN(CC(C)O)CC(C)O","-","R945076","M1107024","-","-","1-(bis-2-hydroxypropyl)aminopentane","-","Koerner","charochkina","A5793","-","-","-","9.0","Log unit","9.0","Log unit","N(CC(O)C)(CC(O)C)CCCCC","4","","{nr2=[4], oh=[0, 7]}","OC(C)CN(CC(O)C)CCCCC","nr2","25.0","?C","","-","FMCAWMPNLUZDNF-UHFFFAOYSA"
"CCN(CC)CCCCCC#N","-","R945077","M1107025","-","-","1-cyano-5-diethylaminopentane","-","Koerner","charochkina","A5793","-","-","-","10.46","Log unit","10.46","Log unit","N(CCCCCC#N)(CC)CC","7","","{nr2=[7]}","N#CCCCCCN(CC)CC","nr2","25.0","?C","","-","WEYQDIOFTCWQJO-UHFFFAOYSA"
"NCCCCCN","-","R945078","M20570","-","-","1,5-diamino-pentane","-","Koerner","charochkina","A5793","-","-","-","9.95","Log unit","9.95","Log unit","NCCCCCN","0","","{nr2=[0, 6]}","NCCCCCN","nr2","25.0","?C","true","-","VHRGRCVQAFMJIZ-UHFFFAOYSA"
"NCCCCC[NH3+]","-","R945079","M20570","-","-","1,5-diamino-pentane","-","Koerner","charochkina","A5793","-","-","-","9.43","Log unit","9.43","Log unit","NCCCCC[NH3+]","0","","{nr2=[0]}","NCCCCC[N+1]","nr2","25.0","?C","","-","VHRGRCVQAFMJIZ-UHFFFAOYSA"
"CC(C)C(C(C)C)N(C)C","-","R945080","M90223","-","-","2,4-dimethyl-3-dimethylaminopentane","-","Koerner","charochkina","A5793","-","-","-","10.01","Log unit","10.01","Log unit","N(C)(C)C(C(C)C)C(C)C","0","","{nr2=[0]}","N(C)(C)C(C(C)C)C(C)C","nr2","25.0","?C","","-","SWIVDNYSVCBPDH-UHFFFAOYSA"
"CCCCCCN","-","R945081","M879","-","-","1-Aminohexane","-","Koerner","charochkina","A5793","-","-","-","10.6","Log unit","10.6","Log unit","NCCCCCC","0","","{nr2=[0]}","NCCCCCC","nr2","25.0","?C","","-","BMVXCPBXGZKUPN-UHFFFAOYSA"
"NCCCCCCBr","-","R945082","M1107026","-","-","1-amino-6-bromohexane","-","Koerner","charochkina","A5793","-","-","-","10.6","Log unit","10.6","Log unit","NCCCCCCBr","7","","{nr2=[7]}","BrCCCCCCN","nr2","25.0","?C","","-","JKLWLHQDZJWQCR-UHFFFAOYSA"
"NCCCCCCO","-","R945083","M10678","-","-","1-amino-6-hydroxyhexane","-","Koerner","charochkina","A5793","-","-","-","10.6","Log unit","10.6","Log unit","NCCCCCCO","7","","{nr2=[7], oh=[0]}","OCCCCCCN","nr2","25.0","?C","","-","SUTWPJHCRAITLU-UHFFFAOYSA"
"CCCCNCCCCCCNCCCC","-","R945084","M29742","-","-","1,6-bis-n-butylaminohexane","-","Koerner","charochkina","A5793","-","-","-","11.0","Log unit","11.0","Log unit","N(CCCC)CCCCCCNCCCC","0","","{nr2=[0, 11]}","N(CCCC)CCCCCCNCCCC","nr2","25.0","?C","true","-","VZRUGPJUVWRHKM-UHFFFAOYSA"
"CC(C)(C)NCCCCCCNC(C)(C)C","-","R945085","M1107027","-","-","1,6-bis-t-butylaminohexane","-","Koerner","charochkina","A5793","-","-","-","10.7","Log unit","10.7","Log unit","N(C(C)(C)C)CCCCCCNC(C)(C)C","0","","{nr2=[0, 11]}","N(C(C)(C)C)CCCCCCNC(C)(C)C","nr2","25.0","?C","true","-","UUDNGNIYVJLSBP-UHFFFAOYSA"
"CCCCCCN(CC(C)O)CC(C)O","-","R945086","M1107028","-","-","1-(bis-2-hydroxypropyl)aminohexane","-","Koerner","charochkina","A5793","-","-","-","8.5","Log unit","8.5","Log unit","N(CC(O)C)(CC(O)C)CCCCCC","4","","{nr2=[4], oh=[0, 7]}","OC(C)CN(CC(O)C)CCCCCC","nr2","25.0","?C","","-","CFGWPTDWIBCXMS-UHFFFAOYSA"
"CC(C)NCCCCCCNC(C)C","-","R945087","M1107029","-","-","1,6-bisisopropylaminohexane","-","Koerner","charochkina","A5793","-","-","-","11.0","Log unit","11.0","Log unit","N(C(C)C)CCCCCCNC(C)C","0","","{nr2=[0, 10]}","N(C(C)C)CCCCCCNC(C)C","nr2","25.0","?C","true","-","WKDYUFNLLPDLJI-UHFFFAOYSA"
"NCCCCCCN","-","R945088","M19186","-","-","1,6-Diaminohexane","-","Koerner","charochkina","A5793","-","-","-","10.634","Log unit","10.634","Log unit","NCCCCCCN","0","","{nr2=[0, 7]}","NCCCCCCN","nr2","25.0","?C","true","-","NAQMVNRVTILPCV-UHFFFAOYSA"
"NCCCCCC[NH3+]","-","R945089","M19186","-","-","1,6-Diaminohexane","-","Koerner","charochkina","A5793","-","-","-","10.1","Log unit","10.1","Log unit","NCCCCCC[NH3+]","7","","{nr2=[7]}","[N+1]CCCCCCN","nr2","25.0","?C","","-","NAQMVNRVTILPCV-UHFFFAOYSA"
"CCCCCCNCCCCCC","-","R945090","M8909","-","-","1-hexylaminohexane","-","Koerner","charochkina","A5793","-","-","-","11.01","Log unit","11.01","Log unit","N(CCCCCC)CCCCCC","0","","{nr2=[0]}","N(CCCCCC)CCCCCC","nr2","25.0","?C","","-","PXSXRABJBXYMFT-UHFFFAOYSA"
"CCCCCCCN","-","R945091","M12359","-","-","1-Aminoheptane","-","Koerner","charochkina","A5793","-","-","-","10.66","Log unit","10.66","Log unit","NCCCCCCC","0","","{nr2=[0]}","NCCCCCCC","nr2","25.0","?C","","-","WJYIASZWHGOTOU-UHFFFAOYSA"
"CCCCCC(C)N","-","R945092","M19174","-","-","2-AMINOHEPTANE","-","Koerner","charochkina","A5793","-","-","-","10.735","Log unit","10.735","Log unit","NC(C)CCCCC","0","","{nr2=[0]}","NC(C)CCCCC","nr2","25.0","?C","","-","VSRBKQFNFZQRBM-UHFFFAOYSA"
"CCCCCC(C)(C)N","-","R945093","M1107030","-","-","2-amino-2-methylheptane","-","Koerner","charochkina","A5793","-","-","-","10.635","Log unit","10.635","Log unit","NC(C)(C)CCCCC","0","","{nr2=[0]}","NC(C)(C)CCCCC","nr2","25.0","?C","","-","XGDOCEUIQYYJDC-UHFFFAOYSA"
"CC(C)CCCC(C)N","-","R945094","M21536","-","-","2-Amino-6-methylheptane","-","Koerner","charochkina","A5793","-","-","-","10.28","Log unit","10.28","Log unit","NC(C)CCCC(C)C","0","","{nr2=[0]}","NC(C)CCCC(C)C","nr2","25.0","?C","","-","QNIVIMYXGGFTAK-UHFFFAOYSA"
"CCCCCC(C)NC","-","R945095","M21458","-","-","2-Methylaminoheptane","-","Koerner","charochkina","A5793","-","-","-","10.905","Log unit","10.905","Log unit","N(C)C(C)CCCCC","0","","{nr2=[0]}","N(C)C(C)CCCCC","nr2","25.0","?C","","-","BGWFQRDYRSCOCO-UHFFFAOYSA"
"CCCCCCCCN","-","R945096","M4552","-","-","1-Aminooctane","-","Koerner","charochkina","A5793","-","-","-","10.61","Log unit","10.61","Log unit","NCCCCCCCC","0","","{nr2=[0]}","NCCCCCCCC","nr2","25.0","?C","","-","IOQPZZOEVPZRBK-UHFFFAOYSA"
"CCCCCCC(C)N","-","R945097","M3688","-","-","2-Aminooctane","-","Koerner","charochkina","A5793","-","-","-","10.49","Log unit","10.49","Log unit","NC(C)CCCCCC","0","","{nr2=[0]}","NC(C)CCCCCC","nr2","25.0","?C","","-","HBXNJMZWGSCKPW-UHFFFAOYSA"
"CC(=[NH+]O)C(C)(C)CCCCCN","-","R945098","M1107031","-","-","1-amino-7-hydroxyimino-6,6-dimethyloctane","-","Koerner","charochkina","A5793","-","-","-","9.12","Log unit","9.12","Log unit","NCCCCCC(C(=[N+]O)C)(C)C","12","","{neth=[0], nr2=[12], oh=[0]}","O[N+1]=C(C)C(C)(C)CCCCCN","nr2","25.0","?C","","-","WDEVISCQUPCFDH-UHFFFAOYSA"
"CCCCCC(O)C(C)(C)N","-","R945099","M1107032","-","-","2-amino-3-hydroxy-2-methyl-octane","-","Koerner","charochkina","A5793","-","-","-","9.85","Log unit","9.85","Log unit","NC(C(O)CCCCC)(C)C","3","","{nr2=[3], oh=[0]}","OC(C(N)(C)C)CCCCC","nr2","25.0","?C","","-","BCRNSKZTFCXBLT-UHFFFAOYSA"
"CCCCCCCCN(CC(C)O)CC(C)O","-","R945100","M83370","-","-","1-(bis-2-hydroxypropyl)aminooctane","-","Koerner","charochkina","A5793","-","-","-","8.3","Log unit","8.3","Log unit","N(CC(O)C)(CC(O)C)CCCCCCCC","4","","{nr2=[4], oh=[0, 7]}","OC(C)CN(CC(O)C)CCCCCCCC","nr2","25.0","?C","","-","QNRXIVCOPVCHAA-UHFFFAOYSA"
"NCCCCCCCCN","-","R945101","M20287","-","-","1,8-diaminoocatane","-","Koerner","charochkina","A5793","-","-","-","10.7","Log unit","10.7","Log unit","NCCCCCCCCN","0","","{nr2=[0, 9]}","NCCCCCCCCN","nr2","25.0","?C","true","-","PWGJDPKCLMLPJW-UHFFFAOYSA"