Smiles,CASRN,Record ID,Molecule ID,External ID,N,Name,Introducer,Modifer,Article ID,PUBMED ID,PAGE,TABLE,pKa,pKa Unit,Temperature,Temperature Unit,Ionizable center smiles,IC group
CC(C([NH3+])C(O)=O)C(F)(F)F,-,R935889,M1034169,-,-,"gamma,gamma,gamma-trifluoro-valine",Koerner,charochkina,A5793,-,-,-,1.537,Log unit,25,?C,OC(=O)C(C(C(F)(F)F)C)[NH3+],"{co2h=10, aliphatic_carboxylic_acid=10}"
CC(C(N)C([O-])=O)C(F)(F)F,-,R935890,M1034169,-,-,"gamma,gamma,gamma-trifluoro-valine",Koerner,charochkina,A5793,-,-,-,8.1,Log unit,25,?C,NC(C(C(F)(F)F)C)C(=O)[O-],{nr2=7}
[NH3+]C(CC(F)(F)F)C(O)=O,-,R935891,M746404,-,-,"gamma,gamma,gamma-trifluoro-alpha-amino-n-butyric acid",Koerner,charochkina,A5793,-,-,-,1.6,Log unit,25,?C,OC(=O)C(CC(F)(F)F)[NH3+],"{co2h=9, aliphatic_carboxylic_acid=9}"
NC(CC(F)(F)F)C([O-])=O,-,R935892,M746404,-,-,"gamma,gamma,gamma-trifluoro-alpha-amino-n-butyric acid",Koerner,charochkina,A5793,-,-,-,8.2,Log unit,25,?C,NC(CC(F)(F)F)C(=O)[O-],{nr2=6}
[NH3+]C(C(O)C(F)(F)F)C(O)=O,-,R935893,M846788,-,-,"gamma,gamma,gamma-trifluoro-threonine",Koerner,charochkina,A5793,-,-,-,1.554,Log unit,25,?C,OC(=O)C(C(C(F)(F)F)O)[NH3+],"{co2h=10, aliphatic_carboxylic_acid=10}"
NC(C(O)C(F)(F)F)C([O-])=O,-,R935894,M846788,-,-,"gamma,gamma,gamma-trifluoro-threonine",Koerner,charochkina,A5793,-,-,-,7.82,Log unit,25,?C,NC(C(C(F)(F)F)O)C(=O)[O-],{nr2=7}
NC(CC([O-])=O)C(F)(F)F,-,R935895,M746405,-,-,"gamma,gamma,gamma-trifluoro-beta-amino-n-butyric acid",Koerner,charochkina,A5793,-,-,-,5.8,Log unit,25,?C,NC(C(F)(F)F)CC(=O)[O-],{nr2=5}
[NH3+]C(CO)C(O)=O,-,R935896,M17146,-,-,SERINE,Koerner,charochkina,A5793,-,-,-,2.21,Log unit,25,?C,OC(=O)C([NH3+])CO,"{co2h=2, aliphatic_carboxylic_acid=2}"
NC(CO)C([O-])=O,-,R935897,M17146,-,-,SERINE,Koerner,charochkina,A5793,-,-,-,9.1,Log unit,25,?C,NC(C(=O)[O-])CO,{nr2=4}
OC1C[NH2+]C(C1)C(O)=O,-,R935898,M8679,-,-,hydroxyproline,Koerner,charochkina,A5793,-,-,-,1.92,Log unit,25,?C,OC(=O)C1CC(O)C[NH2+]1,"{co2h=8, aliphatic_carboxylic_acid=8}"
OC1CNC(C1)C([O-])=O,-,R935899,M8679,-,-,hydroxyproline,Koerner,charochkina,A5793,-,-,-,9.7,Log unit,25,?C,N1CC(O)CC1C(=O)[O-],{nr2=3}
[NH3+]C(C(O)CC(O)=O)C(O)=O,-,R935900,M986872,-,-,beta-hydroxy-glutamic acid,Koerner,charochkina,A5793,-,-,-,2.32,Log unit,25,?C,OC(=O)CC(O)C([NH3+])C(=O)O,{aliphatic_carboxylic_acid=2}
[NH3+]C(C(O)CC(O)=O)C([O-])=O,-,R935901,M986872,-,-,beta-hydroxy-glutamic acid,Koerner,charochkina,A5793,-,-,-,4.2,Log unit,25,?C,OC(=O)CC(O)C([NH3+])C(=O)[O-],"{co2h=2, aliphatic_carboxylic_acid=2}"
NC(C(O)CC([O-])=O)C([O-])=O,-,R935902,M986872,-,-,beta-hydroxy-glutamic acid,Koerner,charochkina,A5793,-,-,-,9.6,Log unit,25,?C,NC(C(CC(=O)[O-])O)C(=O)[O-],{nr2=7}
NC(=[NH2+])NOCCC([NH3+])C(O)=O,-,R935903,M21529,-,-,Canavanine,Koerner,charochkina,A5793,-,-,-,2.5,Log unit,25,?C,OC(=O)C([NH3+])CCONC(=[NH2+])N,"{co2h=2, aliphatic_carboxylic_acid=2}"
[NH3+]OCCC([NH3+])C(O)=O,-,R935904,M1034170,-,-,canaline,Koerner,charochkina,A5793,-,-,-,2.4,Log unit,25,?C,OC(=O)C([NH3+])CCO[NH3+],"{co2h=2, aliphatic_carboxylic_acid=2}"
NOCCC([NH3+])C([O-])=O,-,R935905,M1034171,-,-,canaline,Koerner,charochkina,A5793,-,-,-,3.7,Log unit,25,?C,NOCCC(C(=O)[O-])[NH3+],{nr2=8}
CCSCC([NH3+])C(O)=O,-,R935906,M1034172,-,-,s-ethyl-cysteine,Koerner,charochkina,A5793,-,-,-,2.03,Log unit,25,?C,OC(=O)C(CSCC)[NH3+],"{co2h=8, aliphatic_carboxylic_acid=8}"
CCSCC(N)C([O-])=O,-,R935907,M1034172,-,-,s-ethyl-cysteine,Koerner,charochkina,A5793,-,-,-,8.6,Log unit,25,?C,NC(CSCC)C(=O)[O-],{nr2=5}
OC(=O)CS(=O)(=O)C(F)(F)F,-,R935908,M1018412,-,-,trifluoromethylsulfonyl-acetic acid,Koerner,charochkina,A5793,-,-,-,1.88,Log unit,25,?C,OC(=O)CS(=O)(=O)C(F)(F)F,"{co2h=10, aliphatic_carboxylic_acid=10}"
OC(=O)CN(=O)=O,-,R935909,M124387,-,-,nitro-acetic acid,Koerner,charochkina,A5793,-,-,-,1.48,Log unit,25,?C,OC(=O)CN(=O)=O,"{co2h=6, aliphatic_carboxylic_acid=6}"
CCOC(=O)C=CC(O)=O,-,R935910,M26922,-,-,3-ethoxycarbonyl-propenoic acid,Koerner,charochkina,A5793,-,-,-,3.396,Log unit,25,?C,OC(=O)C=CC(=O)OCC,"{co2h=2, aliphatic_carboxylic_acid=2}"
CCCCCC(O)=O,-,R935911,M2941,-,-,HEXANOIC ACID,Koerner,charochkina,A5793,-,-,-,4.825,Log unit,25,?C,OC(=O)CCCCC,"{co2h=2, aliphatic_carboxylic_acid=2}"
CC(=O)OC(CC(N(=O)=O)(N(=O)=O)N(=O)=O)C(O)=O,-,R935912,M1018413,-,-,"2-acetoxy-4,4,4-trinitro-butanoic acid",Koerner,charochkina,A5793,-,-,-,2.02,Log unit,25,?C,OC(=O)C(CC(N(=O)=O)(N(=O)=O)N(=O)=O)OC(=O)C,"{co2h=18, aliphatic_carboxylic_acid=18}"
CC(=O)OC(C(O)=O)C(C)(N(=O)=O)N(=O)=O,-,R935913,M1018414,-,-,"2-acetoxy-3,3-dinitro-butanoic acid",Koerner,charochkina,A5793,-,-,-,1.85,Log unit,25,?C,OC(=O)C(C(N(=O)=O)(N(=O)=O)C)OC(=O)C,"{co2h=15, aliphatic_carboxylic_acid=15}"
CC(C)C(C#N)C(O)=O,-,R935914,M1018415,-,-,2-cyano-3-methyl-butanoic acid,Koerner,charochkina,A5793,-,-,-,2.4,Log unit,25,?C,OC(=O)C(C#N)C(C)C,"{co2h=2, aliphatic_carboxylic_acid=2}"
CC(Cl)CCCC(O)=O,-,R935915,M1018416,-,-,5-chloro-hexanoic acid,Koerner,charochkina,A5793,-,-,-,4.6,Log unit,25,?C,OC(=O)CCCC(Cl)C,"{co2h=8, aliphatic_carboxylic_acid=8}"
OC(=O)C1=CC=CC(O)=C1O,-,R935916,M19906,-,-,"2,3-DIHYDROXY-BENZOIC ACID",Koerner,charochkina,A5793,-,-,-,2.914,Log unit,25,?C,OC(=O)c1cccc(O)c1O,"{co2h=10, aliphatic_carboxylic_acid=10}"
OC(=O)C1=CC(O)=CC=C1O,-,R935917,M12697,-,-,"2,5-dihydroxy-benzoic acid",Koerner,charochkina,A5793,-,-,-,2.9655,Log unit,25,?C,OC(=O)c1cc(O)ccc1O,"{co2h=10, aliphatic_carboxylic_acid=10}"
CCCCC=CC(O)=O,-,R935918,M34594,-,-,2-HEPTENOIC ACID,Koerner,charochkina,A5793,-,-,-,4.5,Log unit,25,?C,OC(=O)C=CCCCC,"{co2h=2, aliphatic_carboxylic_acid=2}"
CCCCC(=C)C(O)=O,-,R935919,M1018417,-,-,2-methylene-hexanoic acid,Koerner,charochkina,A5793,-,-,-,4.8,Log unit,25,?C,OC(=O)C(=C)CCCC,"{co2h=2, aliphatic_carboxylic_acid=2}"
CCCC=C(C)C(O)=O,-,R935920,M991014,-,-,2-methyl-2-hexanoic acid,Koerner,charochkina,A5793,-,-,-,5.13,Log unit,25,?C,OC(=O)C(=CCCC)C,"{co2h=2, aliphatic_carboxylic_acid=2}"
CCOC(=O)C(CC)C(O)=O,-,R935921,M1018418,-,-,2-ethoxycarbonyl-butanoic acid,Koerner,charochkina,A5793,-,-,-,3.43,Log unit,25,?C,OC(=O)C(C(=O)OCC)CC,"{co2h=2, aliphatic_carboxylic_acid=2}"
CCOC(=O)C(C)(C)C(O)=O,-,R935922,M1018419,-,-,2-ethoxycarbonyl-2-methyl-propanoic acid,Koerner,charochkina,A5793,-,-,-,3.49,Log unit,25,?C,OC(=O)C(C)(C)C(=O)OCC,"{co2h=2, aliphatic_carboxylic_acid=2}"
CCCC(C)(C)C(O)=O,-,R935923,M24798,-,-,"2,2-dimethyl-pentanoic acid",Koerner,charochkina,A5793,-,-,-,4.969,Log unit,25,?C,OC(=O)C(C)(C)CCC,"{co2h=2, aliphatic_carboxylic_acid=2}"
OC(=O)CSC1CCCCC1,-,R935924,M40024,-,-,CYCLOHEXYLTHIOACETIC ACID,Koerner,charochkina,A5793,-,-,-,3.49,Log unit,25,?C,OC(=O)CSC1CCCCC1,"{co2h=4, aliphatic_carboxylic_acid=4}"
OC(=O)CSCC(O)=O,-,R935925,M19180,-,-,Thiodiacetic acid,Koerner,charochkina,A5793,-,-,-,3.57,Log unit,25,?C,OC(=O)CSCC(=O)O,"{co2h=4, aliphatic_carboxylic_acid=4}"
OC(=O)CSCCSCC(O)=O,-,R935926,M1018420,-,-,ethylene-bis-thioacetic acid,Koerner,charochkina,A5793,-,-,-,3.475,Log unit,25,?C,OC(=O)CSCCSCC(=O)O,"{co2h=4, aliphatic_carboxylic_acid=4}"
OC(=O)CSCCCSCC(O)=O,-,R935927,M29893,-,-,trimethylene-bis-thioacetic acid,Koerner,charochkina,A5793,-,-,-,3.74,Log unit,25,?C,OC(=O)CSCCCSCC(=O)O,"{co2h=4, aliphatic_carboxylic_acid=4}"
OC(=O)CSCCCCSCC(O)=O,-,R935928,M1018421,-,-,tetramethylene-bis-thioacetic acid,Koerner,charochkina,A5793,-,-,-,3.76,Log unit,25,?C,OC(=O)CSCCCCSCC(=O)O,"{co2h=4, aliphatic_carboxylic_acid=4}"
OC(=O)CSCCCCCSCC(O)=O,-,R935929,M1018422,-,-,pentamethylene-bis-thioacetic acid,Koerner,charochkina,A5793,-,-,-,3.79,Log unit,25,?C,OC(=O)CSCCCCCSCC(=O)O,"{co2h=4, aliphatic_carboxylic_acid=4}"
CSC(C)C(O)=O,-,R935930,M84851,-,-,alpha-(methylthio)propionic acid,Koerner,charochkina,A5793,-,-,-,3.76,Log unit,25,?C,OC(=O)C(SC)C,"{co2h=6, aliphatic_carboxylic_acid=6}"
CCSC(C)C(O)=O,-,R935931,M1018423,-,-,alpha-(ethylthio)-propionic acid,Koerner,charochkina,A5793,-,-,-,3.8,Log unit,25,?C,OC(=O)C(SCC)C,"{co2h=7, aliphatic_carboxylic_acid=7}"
CCCSC(C)C(O)=O,-,R935932,M1018424,-,-,alpha-(n-propylthio)-propionic acid,Koerner,charochkina,A5793,-,-,-,3.82,Log unit,25,?C,OC(=O)C(SCCC)C,"{co2h=8, aliphatic_carboxylic_acid=8}"
CC(C)SC(C)C(O)=O,-,R935933,M1018425,-,-,alpha-(isopropylthio)-propionic acid,Koerner,charochkina,A5793,-,-,-,3.78,Log unit,25,?C,OC(=O)C(SC(C)C)C,"{co2h=8, aliphatic_carboxylic_acid=8}"
CC(SCSC(C)C(O)=O)C(O)=O,-,R935934,M35065,-,-,alpha-methylene-bis-thiopropionic acid,Koerner,charochkina,A5793,-,-,-,3.68,Log unit,25,?C,OC(=O)C(SCSC(C(=O)O)C)C,"{co2h=6, aliphatic_carboxylic_acid=6}"
OC(=O)CCSCCC(O)=O,-,R935935,M18756,-,-,beta-thio-dipropionic acid,Koerner,charochkina,A5793,-,-,-,4.39,Log unit,25,?C,OC(=O)CCSCCC(=O)O,"{co2h=5, aliphatic_carboxylic_acid=5}"
OC(=O)CCCSCCCC(O)=O,-,R935936,M1018426,-,-,gamma-thio-di-n-butyric acid,Koerner,charochkina,A5793,-,-,-,4.65,Log unit,25,?C,OC(=O)CCCSCCCC(=O)O,"{co2h=6, aliphatic_carboxylic_acid=6}"
CC(C(O)=O)S(C)(=O)=O,-,R935937,M1018427,-,-,alpha-methylsulphonyl-propionic acid,Koerner,charochkina,A5793,-,-,-,2.44,Log unit,25,?C,OC(=O)C(S(=O)(=O)C)C,"{co2h=8, aliphatic_carboxylic_acid=8}"
CCCS(=O)(=O)C(C)C(O)=O,-,R935938,M1018428,-,-,alpha-n-propylsulfonyl-propionic acid,Koerner,charochkina,A5793,-,-,-,2.51,Log unit,25,?C,OC(=O)C(S(=O)(=O)CCC)C,"{co2h=9, aliphatic_carboxylic_acid=9}"
OC(=O)C(Br)Br,-,R935939,M22993,-,-,dibromo-acetic acid,Koerner,charochkina,A5793,-,-,-,1.48,Log unit,25,?C,OC(=O)C(Br)Br,"{co2h=5, aliphatic_carboxylic_acid=5}"
OC(=O)C(F)F,-,R935940,M20312,-,-,difluoro-acetic acid,Koerner,charochkina,A5793,-,-,-,1.235,Log unit,25,?C,OC(=O)C(F)F,"{co2h=5, aliphatic_carboxylic_acid=5}"
OCCC(O)=O,-,R935941,M20996,-,-,3-HYDROXY-PROPANOIC ACID,Koerner,charochkina,A5793,-,-,-,4.505,Log unit,25,?C,OC(=O)CCO,"{co2h=2, aliphatic_carboxylic_acid=2}"
OC(C(F)(F)F)C(F)(F)F,-,R935942,M14593,-,-,"1,1,1,3,3,3-Hexafluoro-2-propanol",Koerner,charochkina,A5793,-,-,-,9.3,Log unit,25,?C,OC(C(F)(F)F)C(F)(F)F,{oh=5}
OC(=O)C=CBr,-,R935943,M1018429,-,-,3-bromo-propenoic acid,Koerner,charochkina,A5793,-,-,-,3.515,Log unit,25,?C,OC(=O)C=CBr,"{co2h=5, aliphatic_carboxylic_acid=5}"
OC(=O)C=CI,-,R935944,M750877,-,-,3-iodo-propenoic acid,Koerner,charochkina,A5793,-,-,-,3.58,Log unit,25,?C,OC(=O)C=CI,"{co2h=5, aliphatic_carboxylic_acid=5}"
OC(=O)C=CN(=O)=O,-,R935945,M1018430,-,-,3-nitro-propenoic acid,Koerner,charochkina,A5793,-,-,-,2.58,Log unit,25,?C,OC(=O)C=CN(=O)=O,"{co2h=7, aliphatic_carboxylic_acid=7}"
COCCC(O)=O,-,R935946,M1018431,-,-,3-methoxy-propenoic acid,Koerner,charochkina,A5793,-,-,-,4.85,Log unit,25,?C,OC(=O)CCOC,"{co2h=2, aliphatic_carboxylic_acid=2}"
CCC(O)C(O)=O,-,R935947,M22247,-,-,2-hydroxy-butanoic acid,Koerner,charochkina,A5793,-,-,-,3.81,Log unit,25,?C,OC(=O)C(O)CC,"{co2h=2, aliphatic_carboxylic_acid=2}"
CC(Cl)=CC(O)=O,-,R935948,M30978,-,-,3-Chloro-2-butenoic acid,Koerner,charochkina,A5793,-,-,-,3.93,Log unit,25,?C,OC(=O)C=C(Cl)C,"{co2h=6, aliphatic_carboxylic_acid=6}"
OC(=O)C=CCCl,-,R935949,M33794,-,-,4-chloro-2-butenoic acid,Koerner,charochkina,A5793,-,-,-,4.15,Log unit,25,?C,OC(=O)C=CCCl,"{co2h=6, aliphatic_carboxylic_acid=6}"
OC(=O)CC=CCl,-,R935950,M1018432,-,-,4-chloro-3-butenoic acid,Koerner,charochkina,A5793,-,-,-,4.07,Log unit,25,?C,OC(=O)CC=CCl,"{co2h=6, aliphatic_carboxylic_acid=6}"
CC(=CCl)C(O)=O,-,R935951,M1018433,-,-,3-chloro-2-methyl-propenoic acid,Koerner,charochkina,A5793,-,-,-,4.04,Log unit,25,?C,OC(=O)C(=CCl)C,"{co2h=6, aliphatic_carboxylic_acid=6}"
CC(Br)=CC(O)=O,-,R935952,M1018434,-,-,3-bromo-2-butenoic acid,Koerner,charochkina,A5793,-,-,-,3.74,Log unit,25,?C,OC(=O)C=C(Br)C,"{co2h=6, aliphatic_carboxylic_acid=6}"
CC(I)=CC(O)=O,-,R935953,M1018435,-,-,3-iodo-2-butenoic acid,Koerner,charochkina,A5793,-,-,-,3.77,Log unit,25,?C,OC(=O)C=C(I)C,"{co2h=6, aliphatic_carboxylic_acid=6}"
OC(=O)CCC(N(=O)=O)(N(=O)=O)N(=O)=O,-,R935954,M29878,-,-,"4,4,4-trinitro-butanoic acid",Koerner,charochkina,A5793,-,-,-,3.64,Log unit,25,?C,OC(=O)CCC(N(=O)=O)(N(=O)=O)N(=O)=O,"{co2h=14, aliphatic_carboxylic_acid=14}"
OC(CC(N(=O)=O)(N(=O)=O)N(=O)=O)C(O)=O,-,R935955,M1018436,-,-,"2-hydroxy-4,4,4-trinitro-butanoic acid",Koerner,charochkina,A5793,-,-,-,3.05,Log unit,25,?C,OC(=O)C(CC(N(=O)=O)(N(=O)=O)N(=O)=O)O,"{co2h=15, aliphatic_carboxylic_acid=15}"
CC(C(O)C(O)=O)(N(=O)=O)N(=O)=O,-,R935956,M1018437,-,-,"2-hydroxy-3,3-dinitro-butanoic acid",Koerner,charochkina,A5793,-,-,-,2.37,Log unit,25,?C,OC(=O)C(C(N(=O)=O)(N(=O)=O)C)O,"{co2h=12, aliphatic_carboxylic_acid=12}"
CCCNC(C)C([O-])=O,-,R935757,M1034160,-,-,N-n-propyl-alanine,Koerner,charochkina,A5793,-,-,-,10.2,Log unit,25,?C,N(C(C(=O)[O-])C)CCC,{nr2=4}
CC(NC(C)=O)C(O)=O,-,R935758,M65221,-,-,dl-N-acetyl-alanine,Koerner,charochkina,A5793,-,-,-,3.7089,Log unit,25,?C,OC(=O)C(NC(=O)C)C,"{co2h=7, aliphatic_carboxylic_acid=7}"
CC(NC(N)=O)C(O)=O,-,R935759,M21952,-,-,dl-N-carbamoyl-alanine,Koerner,charochkina,A5793,-,-,-,3.8915,Log unit,25,?C,OC(=O)C(NC(=O)N)C,"{co2h=8, aliphatic_carboxylic_acid=8}"
[NH3+]CCC(O)=O,-,R935760,M18635,-,-,beta-amino-propionic acid,Koerner,charochkina,A5793,-,-,-,3.58,Log unit,25,?C,OC(=O)CC[NH3+],"{co2h=2, aliphatic_carboxylic_acid=2}"
NCCC([O-])=O,-,R935761,M18635,-,-,beta-amino-propionic acid,Koerner,charochkina,A5793,-,-,-,10.24,Log unit,25,?C,NCCC(=O)[O-],{nr2=5}
CC(=O)NCCC(O)=O,-,R935762,M72241,-,-,beta-acetylamino-propionic acid,Koerner,charochkina,A5793,-,-,-,4.4443,Log unit,25,?C,OC(=O)CCNC(=O)C,"{co2h=7, aliphatic_carboxylic_acid=7}"
NC(=O)NCCC(O)=O,-,R935763,M20569,-,-,beta-ureido-propionic acid,Koerner,charochkina,A5793,-,-,-,4.4866,Log unit,25,?C,OC(=O)CCNC(=O)N,"{co2h=8, aliphatic_carboxylic_acid=8}"
CCC([NH3+])C(O)=O,-,R935764,M9475,-,-,DL-alpha-Amino-n-butyric acid,Koerner,charochkina,A5793,-,-,-,2.287,Log unit,25,?C,OC(=O)C([NH3+])CC,"{co2h=2, aliphatic_carboxylic_acid=2}"
CCC(N)C([O-])=O,-,R935765,M9475,-,-,DL-alpha-Amino-n-butyric acid,Koerner,charochkina,A5793,-,-,-,9.8,Log unit,25,?C,NC(C(=O)[O-])CC,{nr2=4}
CCC(NC(C)=O)C(O)=O,-,R935766,M1018401,-,-,alpha-acetylamino-n-butyric acid,Koerner,charochkina,A5793,-,-,-,3.7158,Log unit,25,?C,OC(=O)C(NC(=O)C)CC,"{co2h=6, aliphatic_carboxylic_acid=6}"
CCC(NC(N)=O)C(O)=O,-,R935767,M802170,-,-,alpha-ureido-n-butyric acid,Koerner,charochkina,A5793,-,-,-,3.8816,Log unit,25,?C,OC(=O)C(NC(=O)N)CC,"{co2h=7, aliphatic_carboxylic_acid=7}"
[NH3+]CCCC(O)=O,-,R935768,M15778,-,-,gamma-amino-n-butyric acid,Koerner,charochkina,A5793,-,-,-,4.02815,Log unit,25,?C,OC(=O)CCC[NH3+],"{co2h=2, aliphatic_carboxylic_acid=2}"
NCCCC([O-])=O,-,R935769,M15778,-,-,gamma-amino-n-butyric acid,Koerner,charochkina,A5793,-,-,-,10.6,Log unit,25,?C,NCCCC(=O)[O-],{nr2=6}
NC(=O)NCCCC(O)=O,-,R935770,M380972,-,-,gamma-ureido-n-butyric acid,Koerner,charochkina,A5793,-,-,-,4.68345,Log unit,25,?C,OC(=O)CCCNC(=O)N,"{co2h=9, aliphatic_carboxylic_acid=9}"
CC(C)([NH3+])C(O)=O,-,R935771,M17262,-,-,alpha-amino-iso-butyric acid,Koerner,charochkina,A5793,-,-,-,2.3685,Log unit,25,?C,OC(=O)C([NH3+])(C)C,"{co2h=2, aliphatic_carboxylic_acid=2}"
CC(C)(N)C([O-])=O,-,R935772,M17262,-,-,alpha-amino-iso-butyric acid,Koerner,charochkina,A5793,-,-,-,10.2,Log unit,25,?C,NC(C(=O)[O-])(C)C,{nr2=4}
CC(C)(NC(N)=O)C(O)=O,-,R935773,M38724,-,-,alpha-ureido-iso-butyric acid,Koerner,charochkina,A5793,-,-,-,4.4615,Log unit,25,?C,OC(=O)C(NC(=O)N)(C)C,"{co2h=9, aliphatic_carboxylic_acid=9}"
CCCC([NH3+])C(O)=O,-,R935774,M20918,-,-,dl-alpha-amino-n-valeric acid,Koerner,charochkina,A5793,-,-,-,2.3135,Log unit,25,?C,OC(=O)C([NH3+])CCC,"{co2h=2, aliphatic_carboxylic_acid=2}"
CCCC(N)C([O-])=O,-,R935775,M20918,-,-,dl-alpha-amino-n-valeric acid,Koerner,charochkina,A5793,-,-,-,9.8,Log unit,25,?C,NC(C(=O)[O-])CCC,{nr2=4}
CCC([NH3+])CC(O)=O,-,R935776,M134209,-,-,beta-amino-n-valeric acid,Koerner,charochkina,A5793,-,-,-,4.02,Log unit,25,?C,OC(=O)CC([NH3+])CC,"{co2h=2, aliphatic_carboxylic_acid=2}"
CCC(N)CC([O-])=O,-,R935777,M134209,-,-,beta-amino-n-valeric acid,Koerner,charochkina,A5793,-,-,-,10.4,Log unit,25,?C,NC(CC(=O)[O-])CC,{nr2=5}
[NH3+]CCCCC(O)=O,-,R935778,M23204,-,-,delta-Amino-n-valeric acid,Koerner,charochkina,A5793,-,-,-,4.235,Log unit,25,?C,OC(=O)CCCC[NH3+],"{co2h=2, aliphatic_carboxylic_acid=2}"
NCCCCC([O-])=O,-,R935779,M23204,-,-,delta-Amino-n-valeric acid,Koerner,charochkina,A5793,-,-,-,10.76,Log unit,25,?C,NCCCCC(=O)[O-],{nr2=7}
CC(C)C([NH3+])C(O)=O,-,R935780,M17366,-,-,DL-Valine,Koerner,charochkina,A5793,-,-,-,2.292,Log unit,25,?C,OC(=O)C([NH3+])C(C)C,"{co2h=2, aliphatic_carboxylic_acid=2}"
CC(C)C(N)C([O-])=O,-,R935781,M17366,-,-,DL-Valine,Koerner,charochkina,A5793,-,-,-,9.7,Log unit,25,?C,NC(C(=O)[O-])C(C)C,{nr2=4}
CCCCC([NH3+])C(O)=O,-,R935782,M20012,-,-,DL-Norleucine,Koerner,charochkina,A5793,-,-,-,2.3295,Log unit,25,?C,OC(=O)C([NH3+])CCCC,"{co2h=2, aliphatic_carboxylic_acid=2}"
CCCCC(N)C([O-])=O,-,R935783,M20012,-,-,DL-Norleucine,Koerner,charochkina,A5793,-,-,-,9.8,Log unit,25,?C,NC(C(=O)[O-])CCCC,{nr2=4}
[NH3+]CCCCCC(O)=O,-,R935784,M10473,-,-,epsilon-amino-n-capronic acid,Koerner,charochkina,A5793,-,-,-,4.43,Log unit,25,?C,OC(=O)CCCCC[NH3+],"{co2h=2, aliphatic_carboxylic_acid=2}"
NCCCCCC([O-])=O,-,R935785,M10473,-,-,epsilon-amino-n-capronic acid,Koerner,charochkina,A5793,-,-,-,10.78,Log unit,25,?C,NCCCCCC(=O)[O-],{nr2=8}
CC(C)CC([NH3+])C(O)=O,-,R935786,M9908,-,-,DL-Leucine,Koerner,charochkina,A5793,-,-,-,2.3275,Log unit,25,?C,OC(=O)C([NH3+])CC(C)C,"{co2h=2, aliphatic_carboxylic_acid=2}"
CC(C)CC(N)C([O-])=O,-,R935787,M9908,-,-,DL-Leucine,Koerner,charochkina,A5793,-,-,-,9.7,Log unit,25,?C,NC(C(=O)[O-])CC(C)C,{nr2=4}
CCC(C)C([NH3+])C(O)=O,-,R935788,M17376,-,-,DL-Isoleucine,Koerner,charochkina,A5793,-,-,-,2.325,Log unit,25,?C,OC(=O)C([NH3+])C(C)CC,"{co2h=2, aliphatic_carboxylic_acid=2}"
CCC(C)C(N)C([O-])=O,-,R935789,M17376,-,-,DL-Isoleucine,Koerner,charochkina,A5793,-,-,-,9.8,Log unit,25,?C,NC(C(=O)[O-])C(C)CC,{nr2=4}
[NH3+]CCCCCCCCCCCC(O)=O,-,R935790,M67539,-,-,omega-amino-n-dodecanic acid,Koerner,charochkina,A5793,-,-,-,4.648,Log unit,25,?C,OC(=O)CCCCCCCCCCC[NH3+],"{co2h=2, aliphatic_carboxylic_acid=2}"
[NH3+]C1(CCCCC1)C(O)=O,-,R935791,M27358,-,-,"1,1-amino-cyclohexane-carboxylic acid",Koerner,charochkina,A5793,-,-,-,2.66,Log unit,25,?C,OC(=O)C1(CCCCC1)[NH3+],"{co2h=7, aliphatic_carboxylic_acid=7}"
NC1(CCCCC1)C([O-])=O,-,R935792,M27358,-,-,"1,1-amino-cyclohexane-carboxylic acid",Koerner,charochkina,A5793,-,-,-,10,Log unit,25,?C,NC1(CCCCC1)C(=O)[O-],{nr2=4}
[NH3+]C1CCCCC1C(O)=O,-,R935793,M124961,-,-,"1,2-amino-cyclohexane-carboxylic acid",Koerner,charochkina,A5793,-,-,-,3.59,Log unit,25,?C,OC(=O)C1C([NH3+])CCCC1,"{co2h=9, aliphatic_carboxylic_acid=9}"
NC1CCCCC1C([O-])=O,-,R935794,M124961,-,-,"1,2-amino-cyclohexane-carboxylic acid",Koerner,charochkina,A5793,-,-,-,10.1,Log unit,25,?C,NC1CCCCC1C(=O)[O-],{nr2=0}
NC1CCCC(C1)C(O)=O,-,R935795,M476714,-,-,"1,3-aminocyclohexanecarboxylic acid",Koerner,charochkina,A5793,-,-,-,4.2,Log unit,25,?C,OC(=O)C1CC(N)CCC1,"{co2h=9, aliphatic_carboxylic_acid=9}"
[NH3+]C1CCC(CC1)C(O)=O,-,R935796,M740651,-,-,"1,4-amino-cyclohexane-carboxylic acid",Koerner,charochkina,A5793,-,-,-,4.3,Log unit,25,?C,OC(=O)C1CCC([NH3+])CC1,"{co2h=7, aliphatic_carboxylic_acid=7}"
NC1CCC(CC1)C([O-])=O,-,R935797,M740651,-,-,"1,4-amino-cyclohexane-carboxylic acid",Koerner,charochkina,A5793,-,-,-,10.5,Log unit,25,?C,NC1CCC(C(=O)[O-])CC1,{nr2=0}
[NH3+]CCCC([NH3+])C(O)=O,-,R935798,M17346,-,-,ornithine,Koerner,charochkina,A5793,-,-,-,1.94,Log unit,25,?C,OC(=O)C([NH3+])CCC[NH3+],"{co2h=2, aliphatic_carboxylic_acid=2}"
NC(CCC[NH3+])C([O-])=O,-,R935799,M17346,-,-,ornithine,Koerner,charochkina,A5793,-,-,-,8.65,Log unit,25,?C,NC(C(=O)[O-])CCC[NH3+],{nr2=4}
NC(=[NH2+])NCCCC([NH3+])C(O)=O,-,R935800,M17386,-,-,ARGININE,Koerner,charochkina,A5793,-,-,-,2.06,Log unit,25,?C,OC(=O)C([NH3+])CCCNC(=[NH2+])N,"{co2h=2, aliphatic_carboxylic_acid=2}"
[NH3+]C(CC1=CNC=[NH+]1)C(O)=O,-,R935801,M3941,-,-,histidine,Koerner,charochkina,A5793,-,-,-,1.8,Log unit,25,?C,OC(=O)C(Cc1[n+]c[nH]c1)[NH3+],"{co2h=10, aliphatic_carboxylic_acid=10}"
NC(=O)NCCCC([NH3+])C(O)=O,-,R935802,M20262,-,-,L-citrulline,Koerner,charochkina,A5793,-,-,-,2.43,Log unit,25,?C,OC(=O)C(CCCNC(=O)N)[NH3+],"{co2h=11, aliphatic_carboxylic_acid=11}"