Smiles,CASRN,Record ID,Molecule ID,External ID,N,Name,Introducer,Modifer,Article ID,PUBMED ID,PAGE,TABLE,pKa,pKa Unit,Temperature,Temperature Unit,Ionizable center smiles,IC group
FC1=CC2=C(C=C1)N=CC=C2,-,R946472,M120506,-,-,6-Fluoroquinoline,Koerner,charochkina,A5793,-,-,-,4.28,Log unit,25,?C,n1cccc2c1ccc(F)c2,0
FC1=CC2=C(C=CC=N2)C=C1,-,R946473,M120508,-,-,7-Fluoroquinoline,Koerner,charochkina,A5793,-,-,-,4.31,Log unit,25,?C,n1cccc2c1cc(F)cc2,0
FC1=CC=CC2=C1N=CC=C2,-,R946474,M20332,-,-,8-FLUOROQUINOLINE,Koerner,charochkina,A5793,-,-,-,3.375,Log unit,25,?C,n1cccc2c1c(F)ccc2,0
FC1CCC(S)C2[NH2+]CCCC12,-,R946475,M1107308,-,-,5-fluoro-8-mercaptoquinoline,Koerner,charochkina,A5793,-,-,-,1.97,Log unit,25,?C,SC1[CH][CH]C(F)C2C1[NH2+][CH][CH][CH]2,0
FC1=CC=C([S-])C2=C1C=CC=N2,-,R946476,M1106903,-,-,5-fluoro-8-mercaptoquinoline,Koerner,charochkina,A5793,-,-,-,7.44,Log unit,25,?C,n1c2c([S-])ccc(F)c2ccc1,7
NNC1=NC2=CC=CC=C2C=C1,-,R946477,M116203,-,-,2-Hydrazinoquinoline,Koerner,charochkina,A5793,-,-,-,7.82,Log unit,25,?C,n1c2ccccc2ccc1NN,8
NNC1=CC2=CC=CC=C2N=C1,-,R946478,M41387,-,-,3-hydrazinoquinoline,Koerner,charochkina,A5793,-,-,-,4.85,Log unit,25,?C,n1c2ccccc2cc(NN)c1,10
NNC1=CC=NC2=CC=CC=C12,-,R946479,M1106904,-,-,4-hydrazinoquinoline,Koerner,charochkina,A5793,-,-,-,8.85,Log unit,25,?C,n1c2ccccc2c(cc1)NN,10
NNC1=CC=CC2=C1C=CC=N2,-,R946480,M1106905,-,-,5-hydrazinoquinoline,Koerner,charochkina,A5793,-,-,-,5.36,Log unit,25,?C,n1cccc2c1cccc2NN,0
NNC1=CC2=C(C=C1)N=CC=C2,-,R946481,M1106906,-,-,6-hydrazinoquinoline,Koerner,charochkina,A5793,-,-,-,5.5,Log unit,25,?C,n1cccc2c1ccc(NN)c2,0
NNC1=CC2=C(C=CC=N2)C=C1,-,R946482,M1106907,-,-,7-hydrazinoquinoline,Koerner,charochkina,A5793,-,-,-,6.71,Log unit,25,?C,n1cccc2c1cc(cc2)NN,0
NNC1=CC=CC2=C1N=CC=C2,-,R946483,M1106908,-,-,8-hydrazinoquinoline,Koerner,charochkina,A5793,-,-,-,5.27,Log unit,25,?C,n1cccc2c1c(ccc2)NN,0
CC1=CC(NN)=NC2=CC=CC=C12,-,R946484,M1106909,-,-,2-hydrazino-4-methylquinoline,Koerner,charochkina,A5793,-,-,-,8.35,Log unit,25,?C,n1c2ccccc2c(cc1NN)C,9
[O-]C1=NC2=C(C=CC=C2)C=C1,-,R946485,M6196,-,-,2-Hydroxyquinoline,Koerner,charochkina,A5793,-,-,-,11.76,Log unit,25,?C,n1c(ccc2c1cccc2)[O-],0
OC1CCC2CCCCC2[NH2+]1,-,R946486,M1107309,-,-,2-Hydroxyquinoline,Koerner,charochkina,A5793,-,-,-,-0.31,Log unit,25,?C,OC1[NH2+]C2[CH][CH][CH][CH]C2[CH][CH]1,4
OC1=CC2=C(C=CC=C2)N=C1,-,R946487,M21901,-,-,3-Hydroxyquinoline,Koerner,charochkina,A5793,-,-,-,8.08,Log unit,25,?C,Oc1cnc2ccccc2c1,4
[O-]C1=CC=NC2=C1C=CC=C2,-,R946488,M8690,-,-,4-Hydroxyquinoline,Koerner,charochkina,A5793,-,-,-,11.28,Log unit,25,?C,n1ccc([O-])c2c1cccc2,0
OC1CC[NH2+]C2CCCCC12,-,R946489,M1107310,-,-,4-Hydroxyquinoline,Koerner,charochkina,A5793,-,-,-,2.2,Log unit,25,?C,OC1[CH][CH][NH2+]C2[CH][CH][CH][CH]C12,4
OC1=CC=CC2=C1C=CC=N2,-,R946490,M3602,-,-,5-hydroxyquinoline,Koerner,charochkina,A5793,-,-,-,8.56,Log unit,25,?C,Oc1c2c(nccc2)ccc1,10
OC1=CC2=C(C=C1)N=CC=C2,-,R946491,M8298,-,-,6-hydroxyquinoline,Koerner,charochkina,A5793,-,-,-,8.9,Log unit,25,?C,Oc1ccc2ncccc2c1,8
OC1=CC2=C(C=CC=N2)C=C1,-,R946492,M21902,-,-,7-HYDROXYQUINOLINE,Koerner,charochkina,A5793,-,-,-,8.87,Log unit,25,?C,Oc1cc2ncccc2cc1,8
OC1=CC=CC2=C1N=CC=C2,-,R946493,M6646,-,-,8-HYDROXYQUINOLINE,Koerner,charochkina,A5793,-,-,-,9.81,Log unit,25,?C,Oc1c2ncccc2ccc1,8
CC1=CC2=C(N=C1C)C(O)=CC=C2,-,R946494,M47428,-,-,"8-hydroxy-2,3-dimethylquinoline",Koerner,charochkina,A5793,-,-,-,5.87,Log unit,25,?C,n1c(c(cc2c1c(ccc2)O)C)C,0
CC1=CC2=C(N=C1C)C(O)=CC=C2,-,R946495,M47428,-,-,"8-hydroxy-2,3-dimethylquinoline",Koerner,charochkina,A5793,-,-,-,10.2,Log unit,25,?C,Oc1c2nc(c(cc2ccc1)C)C,10
CC1=NC2=C(C=CC=C2O)C(C)=C1,-,R946496,M124280,-,-,"8-hydroxy-2,4-dimethylquinoline",Koerner,charochkina,A5793,-,-,-,6.2,Log unit,25,?C,n1c(cc(C)c2c1c(ccc2)O)C,0
CC1=NC2=C(C=CC=C2O)C(C)=C1,-,R946497,M124280,-,-,"8-hydroxy-2,4-dimethylquinoline",Koerner,charochkina,A5793,-,-,-,10.6,Log unit,25,?C,Oc1c2nc(cc(C)c2ccc1)C,10
CC1=C(C)C2=C(N=C1)C(O)=CC=C2,-,R946498,M124318,-,-,"8-hydroxy-3,4-dimethylquinoline",Koerner,charochkina,A5793,-,-,-,10.05,Log unit,25,?C,Oc1c2ncc(c(C)c2ccc1)C,10
CC1=NC2=C(O)C(=CC=C2C(C)=C1)S([O-])(=O)=O,-,R946499,M1106910,-,-,"8-hydroxy-2,4-dimethyl-7(?)-sulphoquinoline",Koerner,charochkina,A5793,-,-,-,5.2,Log unit,25,?C,n1c2c(c(S(=O)(=O)[O-])ccc2c(cc1C)C)O,14
OC1=CC=C(I)C2=C1N=CC=C2,-,R946500,M49643,-,-,8-hydroxy-5-iodoquinoline,Koerner,charochkina,A5793,-,-,-,8.65,Log unit,25,?C,Oc1ccc(I)c2cccnc12,5
OC1=CC=C(I)C2=C1N=CC=C2,-,R946501,M49643,-,-,8-hydroxy-5-iodoquinoline,Koerner,charochkina,A5793,-,-,-,3.48,Log unit,25,?C,n1c2c(c(I)ccc2O)ccc1,11
OC1=C2N=CC=CC2=C(C=C1I)S([O-])(=O)=O,-,R946502,M21588,-,-,8-hydroxy-7-iodo-5-sulphoquinoline,Koerner,charochkina,A5793,-,-,-,7.15,Log unit,25,?C,Oc1c(I)cc(S(=O)(=O)[O-])c2cccnc12,12
CC1=NC2=C(C=CC=C2O)C=C1,-,R946503,M7178,-,-,8-HYDROXY-2-METHYLQUINOLINE,Koerner,charochkina,A5793,-,-,-,10.3,Log unit,25,?C,Oc1c2nc(ccc2ccc1)C,9
CC1=NC2=C(C=CC=C2O)C=C1,-,R946504,M7178,-,-,8-HYDROXY-2-METHYLQUINOLINE,Koerner,charochkina,A5793,-,-,-,5.55,Log unit,25,?C,n1c(ccc2c1c(ccc2)O)C,0
CC1=CC2=C(N=C1)C(O)=CC=C2,-,R946505,M145951,-,-,8-hydroxyl-3-methylquinoline,Koerner,charochkina,A5793,-,-,-,9.74,Log unit,25,?C,Oc1c2ncc(cc2ccc1)C,9
CC1=CC2=C(N=C1)C(O)=CC=C2,-,R946506,M145951,-,-,8-hydroxyl-3-methylquinoline,Koerner,charochkina,A5793,-,-,-,4.94,Log unit,25,?C,n1cc(cc2c1c(ccc2)O)C,0
CC1=CC=NC2=C1C=CC=C2O,-,R946507,M8368,-,-,8-HYDROXY-4-METHYLQUINOLINE,Koerner,charochkina,A5793,-,-,-,10,Log unit,25,?C,Oc1c2nccc(C)c2ccc1,9
CC1=NC2=C(C=C1)C(=CC=C2O)N=O,-,R946508,M296419,-,-,8-hydroxy-2-methyl-5-nitrosoquinoline,Koerner,charochkina,A5793,-,-,-,3.14,Log unit,25,?C,n1c(ccc2c1c(ccc2N=O)O)C,0
CC1=NC2=C(C=C1)C(=CC=C2O)N=O,-,R946509,M296419,-,-,8-hydroxy-2-methyl-5-nitrosoquinoline,Koerner,charochkina,A5793,-,-,-,7.48,Log unit,25,?C,Oc1c2nc(ccc2c(cc1)N=O)C,9
CC1=NC2=C(C=C1)C(=CC=C2O)S([O-])(=O)=O,-,R946510,M124367,-,-,8-hydroxy-2-methyl-5-sulphoquinoline,Koerner,charochkina,A5793,-,-,-,9.3,Log unit,25,?C,Oc1ccc(S(=O)(=O)[O-])c2ccc(C)nc12,8
CC1=NC2=C(C=C1)C(=CC=C2O)S([O-])(=O)=O,-,R946511,M124367,-,-,8-hydroxy-2-methyl-5-sulphoquinoline,Koerner,charochkina,A5793,-,-,-,4.8,Log unit,25,?C,n1c2c(c(S(=O)(=O)[O-])ccc2O)ccc1C,15
CC1=CC=NC2=C(O)C(=CC=C12)S([O-])(=O)=O,-,R946512,M1106911,-,-,8-hydroxy-4-methyl-7-sulphoquinoline,Koerner,charochkina,A5793,-,-,-,4.8,Log unit,25,?C,n1c2c(c(S(=O)(=O)[O-])ccc2c(cc1)C)O,14
CC1=CC=NC2=C(O)C(=CC=C12)S([O-])(=O)=O,-,R946513,M1106911,-,-,8-hydroxy-4-methyl-7-sulphoquinoline,Koerner,charochkina,A5793,-,-,-,10,Log unit,25,?C,Oc1c(S(=O)(=O)[O-])ccc2c(ccnc12)C,12
CC1=C(C2=C(N=CC=C2)C(O)=C1)S([O-])(=O)=O,-,R946514,M1107311,-,-,8-hydroxy-6-methyl-5-sulphoquinoline,Koerner,charochkina,A5793,-,-,-,8.7,Log unit,25,?C,Oc1cc(c(S(=O)(=O)[O-])c2cccnc12)C,8
OC1=C(C=C(C2=C1N=CC=C2)S([O-])(=O)=O)N=NC1=CC=C(C=C1)N(=O)=O,-,R946515,M1106912,-,-,8-hydroxy-7-(4-nitrophenylazo)-5-sulphoquinoline,Koerner,charochkina,A5793,-,-,-,3.14,Log unit,25,?C,n1c2c(c(S(=O)(=O)[O-])cc(c2O)N=Nc2ccc(N(=O)=O)cc2)ccc1,25
OC1=CC=C(N=O)C2=C1N=CC=C2,-,R946516,M28367,-,-,8-Hydroxy-5-nitrosoquinoline,Koerner,charochkina,A5793,-,-,-,2.33,Log unit,25,?C,n1cccc2c1c(ccc2N=O)O,0
OC1=CC=C(N=O)C2=C1N=CC=C2,-,R946517,M28367,-,-,8-Hydroxy-5-nitrosoquinoline,Koerner,charochkina,A5793,-,-,-,7.75,Log unit,25,?C,Oc1c2ncccc2c(cc1)N=O,8
OC1=C(C=C(C2=C1N=CC=C2)S([O-])(=O)=O)N(=O)=O,-,R946518,M1106913,-,-,8-hydroxy-7-nitro-5-sulphoquinoline,Koerner,charochkina,A5793,-,-,-,1.94,Log unit,25,?C,n1c2c(c(S(=O)(=O)[O-])cc(c2O)N(=O)=O)ccc1,17
OC1=C(C=C(C2=C1N=CC=C2)S([O-])(=O)=O)N=NC1=CC=CC=C1,-,R946519,M1106914,-,-,8-hydroxy-7-phenylazo-5-sulphoquinoline,Koerner,charochkina,A5793,-,-,-,3.34,Log unit,25,?C,n1c2c(c(S(=O)(=O)[O-])cc(c2O)N=Nc2ccccc2)ccc1,22
OC1=CC=C(C2=C1N=CC=C2)S([O-])(=O)=O,-,R946520,M17753,-,-,8-hydroxy-5-sulphoquinoline,Koerner,charochkina,A5793,-,-,-,8.78,Log unit,25,?C,Oc1ccc(S(=O)(=O)[O-])c2cccnc12,8
OC1=C(C=CC2=C1N=CC=C2)C(F)(F)F,-,R946521,M1106915,-,-,8-hydroxy-7-trifluoromethylquinoline,Koerner,charochkina,A5793,-,-,-,2.4,Log unit,25,?C,n1cccc2c1c(O)c(cc2)C(F)(F)F,0
OC1=C(C=CC2=C1N=CC=C2)C(F)(F)F,-,R946522,M1106915,-,-,8-hydroxy-7-trifluoromethylquinoline,Koerner,charochkina,A5793,-,-,-,9.1,Log unit,25,?C,Oc1c2ncccc2ccc1C(F)(F)F,6
SC1CCC(I)C2CCC[NH2+]C12,-,R946523,M1107312,-,-,5-iodo-8-mercaptoquinoline,Koerner,charochkina,A5793,-,-,-,1.34,Log unit,25,?C,SC1[CH][CH]C(I)C2[CH][CH][CH][NH2+]C12,5
[S-]C1=CC=C(I)C2=C1N=CC=C2,-,R946524,M1106916,-,-,5-iodo-8-mercaptoquinoline,Koerner,charochkina,A5793,-,-,-,7.48,Log unit,25,?C,n1c2c(c(I)ccc2[S-])ccc1,11
SC1CCC2CCCCC2[NH2+]1,-,R946525,M1107313,-,-,2-Mercaptoquinoline,Koerner,charochkina,A5793,-,-,-,-1.44,Log unit,25,?C,SC1[NH2+]C2[CH][CH][CH][CH]C2[CH][CH]1,0
[S-]C1=NC2=C(C=CC=C2)C=C1,-,R946526,M27217,-,-,2-Mercaptoquinoline,Koerner,charochkina,A5793,-,-,-,10.25,Log unit,25,?C,n1c([S-])ccc2c1cccc2,2
[S-]C1=CN=C2C=CC=CC2=C1,-,R946527,M1106917,-,-,3-mercaptoquinoline,Koerner,charochkina,A5793,-,-,-,6.17,Log unit,25,?C,n1cc([S-])cc2c1cccc2,3
CCCC1=C(C)N=C(N)N=C1C,-,R946328,M1106829,-,-,"2-amino-4,6-dimethyl-5-propylpyrimidine",Koerner,charochkina,A5793,-,-,-,5.12,Log unit,25,?C,n1c(nc(C)c(c1C)CCC)N,0
NC1=NC(=CC(=N1)C1=CC=CC=C1)C1=CC=CC=C1,-,R946329,M414139,-,-,"2-amino-4,6-diphenylpyrimidine",Koerner,charochkina,A5793,-,-,-,3.44,Log unit,25,?C,n1c(c2ccccc2)cc(nc1N)c1ccccc1,5
NC1=NC=C(I)C=N1,-,R946330,M748491,-,-,2-Amino-5-iodopyrimidine,Koerner,charochkina,A5793,-,-,-,1.9,Log unit,25,?C,n1cc(I)cnc1N,3
CC1=CC=C(C=C1)C1=CN=C(N)N=C1,-,R946331,M1106830,-,-,2-amino-5-(p-tolyl)pyrimidine,Koerner,charochkina,A5793,-,-,-,3.14,Log unit,25,?C,n1cc(c2ccc(cc2)C)cnc1N,6
CCOC1=NC=C(Br)C=N1,-,R946332,M1106831,-,-,5-bromo-2-ethoxypyrimidine,Koerner,charochkina,A5793,-,-,-,-0.72,Log unit,25,?C,n1cc(Br)cnc1OCC,3
[O-]C1=NC=C(Br)C=N1,-,R946333,M86418,-,-,5-Bromo-2-hydroxypyrimidine,Koerner,charochkina,A5793,-,-,-,7.06,Log unit,25,?C,n1cc(Br)cnc1[O-],3
[S-]C1=NC=C(Br)C=N1,-,R946334,M1106834,-,-,5-bromo-2-mercaptopyrimidine,Koerner,charochkina,A5793,-,-,-,5.22,Log unit,25,?C,n1cc(Br)cnc1[S-],3
CCC(C)OC1=NC=CC=N1,-,R946335,M1106835,-,-,2-sec-butoxypyrimidine,Koerner,charochkina,A5793,-,-,-,1.33,Log unit,25,?C,n1cccnc1OC(C)CC,0
[O-]C(=O)C1=NC=CC=N1,-,R946336,M1106836,-,-,2-carboxypyrimidine,Koerner,charochkina,A5793,-,-,-,2.5,Log unit,25,?C,n1cccnc1C(=O)[O-],0
ClC1=NC=CC=N1,-,R946337,M25657,-,-,2-Chloropyrimidine,Koerner,charochkina,A5793,-,-,-,-2.2,Log unit,25,?C,n1c(Cl)nccc1,0
NC1=CN=C(N)N=C1,-,R946338,M1106837,-,-,"2,5-diaminopyrimidine",Koerner,charochkina,A5793,-,-,-,3.63,Log unit,25,?C,n1cc(cnc1N)N,0
CC1=CC(C)=NC=N1,-,R946339,M6430,-,-,"4,6-Dimethylpyrimidine",Koerner,charochkina,A5793,-,-,-,2.4,Log unit,25,?C,n1cnc(C)cc1C,0
[O-]C1=NC=CC=N1,-,R946340,M11958,-,-,2-Hydroxypyrimidine,Koerner,charochkina,A5793,-,-,-,9.2,Log unit,25,?C,n1c([O-])nccc1,2
OC1=CN=CN=C1,-,R946341,M1106841,-,-,5-hydroxypyrimidine,Koerner,charochkina,A5793,-,-,-,6.8,Log unit,25,?C,Oc1cncnc1,0
OC1=CN=CN=C1,-,R946342,M1106841,-,-,5-hydroxypyrimidine,Koerner,charochkina,A5793,-,-,-,1.55,Log unit,25,?C,n1cc(O)cnc1,3
COC1=NC(C)=CC([O-])=N1,-,R946343,M1106842,-,-,4-hydroxy-2-methoxy-6-methylpyrimidine,Koerner,charochkina,A5793,-,-,-,8.5,Log unit,25,?C,n1c([O-])cc(nc1OC)C,2
CC1=NC([O-])=NC=C1,-,R946344,M33502,-,-,2-hydroxy-4-methylpyrimidine,Koerner,charochkina,A5793,-,-,-,9.9,Log unit,25,?C,n1c([O-])nc(cc1)C,2
NNC1=NC=CC=N1,-,R946345,M1106844,-,-,2-hydrazinopyrimidine,Koerner,charochkina,A5793,-,-,-,4.25,Log unit,25,?C,n1cccnc1NN,0
CC1=CC(C)=NC([O-])=N1,-,R946346,M65384,-,-,"2-Hydroxy-4,6-dimethylpyrimidine",Koerner,charochkina,A5793,-,-,-,10,Log unit,25,?C,n1c([O-])nc(cc1C)C,2
OC1CC[NH2+]C([S-])[NH2+]1,-,R946347,M1526,-,-,4-Hydroxy-2-mercaptopyrimidine,Koerner,charochkina,A5793,-,-,-,-4.14,Log unit,25,?C,OC1[NH2+]C([S-])[NH2+][CH][CH]1,7
OC1CC[NH2+]C(S)[NH2+]1,-,R946348,M1526,-,-,4-Hydroxy-2-mercaptopyrimidine,Koerner,charochkina,A5793,-,-,-,-6.64,Log unit,25,?C,SC1[NH2+][CH][CH]C([NH2+]1)O,0
CCCC1CC([O-])[NH2+]C(S)[NH2+]1,-,R946349,M1107296,-,-,4-hydroxy-2-mercapto-6-n-propylpyrimidine,Koerner,charochkina,A5793,-,-,-,-6.54,Log unit,25,?C,SC1[NH2+]C([O-])[CH]C([NH2+]1)CCC,0
CCCC1CC(O)[NH2+]C([S-])[NH2+]1,-,R946350,M1107297,-,-,4-hydroxy-2-mercapto-6-n-propylpyrimidine,Koerner,charochkina,A5793,-,-,-,-4.22,Log unit,25,?C,OC1[NH2+]C([S-])[NH2+]C([CH]1)CCC,4
COC1=CC=C(C=C1)C1=CN=C([O-])N=C1,-,R946351,M1106848,-,-,2-hydroxy-5-p-methoxyphenylpyrimidine,Koerner,charochkina,A5793,-,-,-,8.56,Log unit,25,?C,n1c([O-])ncc(c1)c1ccc(OC)cc1,2
CC1=CN=CN=C1[O-],-,R946352,M1106850,-,-,4-hydroxy-5-methylpyrimidine,Koerner,charochkina,A5793,-,-,-,8.87,Log unit,25,?C,n1c([O-])c(cnc1)C,2
[O-]C1=NC=C(C=N1)C1=CC=C(C=C1)N(=O)=O,-,R946353,M1106852,-,-,2-hydroxy-5-p-nitrophenylpyrimidine,Koerner,charochkina,A5793,-,-,-,7.87,Log unit,25,?C,n1c([O-])ncc(c2ccc(N(=O)=O)cc2)c1,0
CC1=CC=C(C=C1)C1=CN=C([O-])N=C1,-,R946354,M1106854,-,-,2-hydroxy-5-p-tolylpyrimidine,Koerner,charochkina,A5793,-,-,-,8.44,Log unit,25,?C,n1cc(c2ccc(cc2)C)cnc1[O-],6
CC1=NC([O-])=NC(C)=C1C,-,R946355,M1106856,-,-,"2-hydroxy-4,5,6-trimethylpyrimidine",Koerner,charochkina,A5793,-,-,-,10.55,Log unit,25,?C,n1c([O-])nc(c(c1C)C)C,2
[S-]C1=NC=CC=N1,-,R946356,M69517,-,-,2-Mercaptopyrimidine,Koerner,charochkina,A5793,-,-,-,6.9,Log unit,25,?C,n1c([S-])nccc1,2
SC1[NH2+]CCC[NH2+]1,-,R946357,M1106858,-,-,2-Mercaptopyrimidine,Koerner,charochkina,A5793,-,-,-,-8.3,Log unit,25,?C,SC1[NH2+][CH][CH][CH][NH2+]1,0
CC1=CC(C)=NC([S-])=N1,-,R946358,M35545,-,-,"2-Mercapto-4,6-dimethylpyrimidine",Koerner,charochkina,A5793,-,-,-,8.2,Log unit,25,?C,n1c([S-])nc(cc1C)C,2
COC1CC(S)[NH2+]CN1,-,R946359,M1107298,-,-,4-mercapto-6-methoxypyrimidine,Koerner,charochkina,A5793,-,-,-,-1.98,Log unit,25,?C,SC1[NH2+][CH]NC([CH]1)OC,0
COC1NC[NH2+]C(S)C1C,-,R946360,M1107299,-,-,4-mercapto-6-methoxy-5-methylpyrimidine,Koerner,charochkina,A5793,-,-,-,-1.59,Log unit,25,?C,SC1[NH2+][CH]NC(C1C)OC,0
COC1=NC=CC=N1,-,R946361,M24082,-,-,2-Methoxypyrimidine,Koerner,charochkina,A5793,-,-,-,0.75,Log unit,25,?C,n1cccnc1OC,0
CSC1=NC=CC=N1,-,R946362,M23737,-,-,2-Methylthiopyrimidine,Koerner,charochkina,A5793,-,-,-,0.29,Log unit,25,?C,n1c(SC)nccc1,3
CC1=NC=C(C=N1)N(=O)=O,-,R946363,M1106862,-,-,2-methyl-5-nitropyrimidine,Koerner,charochkina,A5793,-,-,-,-1.49,Log unit,25,?C,n1cc(cnc1C)N(=O)=O,0
CSC1=NC=C(C=N1)N(=O)=O,-,R946364,M1106863,-,-,2-methylthio-5-nitropyrimidine,Koerner,charochkina,A5793,-,-,-,-2.95,Log unit,25,?C,n1c(SC)ncc(c1)N(=O)=O,3
CCCOC1=NC=CC=N1,-,R946365,M1106864,-,-,2-propoxypyrimidine,Koerner,charochkina,A5793,-,-,-,1.04,Log unit,25,?C,n1cccnc1OCCC,0
NC1=CC(N)=NC(N)=N1,-,R946366,M24311,-,-,"2,4,6-Triaminopyrimidine",Koerner,charochkina,A5793,-,-,-,6.5,Log unit,25,?C,n1c(nc(N)cc1N)N,0
NC1=NC(N)=C(SC2=CC=CC=C2)C(N)=N1,-,R946367,M1106865,-,-,"2,4,6-triamino-5-phenylthiopyrimidine",Koerner,charochkina,A5793,-,-,-,5.36,Log unit,25,?C,n1c(c(Sc2ccccc2)c(nc1N)N)N,9
NC1=NC(N)=NC(N)=N1,-,R946368,M18673,-,-,"2,4,6-Triamino-1,3,5-triazine",Koerner,charochkina,A5793,-,-,-,4.8,Log unit,25,?C,n1c(nc(N)nc1N)N,0
CCNC1=NC(NCC)=NC(NCC)=N1,-,R946369,M116486,-,-,"2,4,6-trisethylamino-1,3,5-triazine",Koerner,charochkina,A5793,-,-,-,5.4,Log unit,25,?C,n1c(nc(NCC)nc1NCC)NCC,0
OCCCNC1=NC(NCCCO)=NC(NCCCO)=N1,-,R946370,M1106866,-,-,"2,4,6-tris(3-hydroxy)propylamino-1,3,5-triazine",Koerner,charochkina,A5793,-,-,-,5.18,Log unit,25,?C,n1c(NCCCO)nc(NCCCO)nc1NCCCO,0
COCNC1=NC(NCOC)=NC(NCOC)=N1,-,R946371,M71221,-,-,"2,4,6-tris(methoxy)methylamino-1,3,5-triazine",Koerner,charochkina,A5793,-,-,-,3.2,Log unit,25,?C,n1c(NCOC)nc(NCOC)nc1NCOC,0
C1=CC=C2C=NC=CC2=C1,-,R946372,M536,-,-,isoquinoline,Koerner,charochkina,A5793,-,-,-,5.4,Log unit,25,?C,n1cc2ccccc2cc1,9
NC1=NC=CC2=CC=CC=C12,-,R946373,M25321,-,-,1-Aminoisoquinoline,Koerner,charochkina,A5793,-,-,-,7.48,Log unit,25,?C,n1c(c2ccccc2cc1)N,5
NC1=CN=CC2=CC=CC=C12,-,R946374,M81301,-,-,4-amino-isoquinoline,Koerner,charochkina,A5793,-,-,-,6.26,Log unit,25,?C,n1cc2ccccc2c(c1)N,10
NC1=CC=CC2=CN=CC=C12,-,R946375,M24678,-,-,5-amino-isoquinoline,Koerner,charochkina,A5793,-,-,-,5.57,Log unit,25,?C,n1ccc2c(cccc2c1)N,0
NC1=CC2=C(C=C1)C=NC=C2,-,R946376,M172460,-,-,6-amino-isoquinoline,Koerner,charochkina,A5793,-,-,-,7.16,Log unit,25,?C,n1cc2ccc(cc2cc1)N,4
NC1=CC2=C(C=CN=C2)C=C1,-,R946377,M1106867,-,-,7-amino-isoquinoline,Koerner,charochkina,A5793,-,-,-,6.19,Log unit,25,?C,n1ccc2ccc(cc2c1)N,5
NC1=CC2=CC=CC=C2C=N1,-,R946378,M203715,-,-,3-aminoisquinoline,Koerner,charochkina,A5793,-,-,-,5.03,Log unit,25,?C,n1cc2ccccc2cc1N,5
NC1=CC=CC2=CC=NC=C12,-,R946379,M619852,-,-,8-aminoisoquinoline,Koerner,charochkina,A5793,-,-,-,6.04,Log unit,25,?C,n1ccc2cccc(c2c1)N,0
BrC1=CN=CC2=C1C=CC=C2,-,R946380,M25322,-,-,4-Bromoisoquinoline,Koerner,charochkina,A5793,-,-,-,3.31,Log unit,25,?C,n1cc(Br)c2ccccc2c1,3
[O-]C1=CC2=C(C=CC=C2)C=N1,-,R946381,M1106868,-,-,3-hydroxyisoquinoline,Koerner,charochkina,A5793,-,-,-,9.62,Log unit,25,?C,n1cc2ccccc2cc1[O-],1
OC1CC2CCCCC2C[NH2+]1,-,R946382,M1107300,-,-,3-hydroxyisoquinoline,Koerner,charochkina,A5793,-,-,-,2.18,Log unit,25,?C,OC1[NH2+][CH]C2[CH][CH][CH][CH]C2[CH]1,3
OC1=C2C=CC=CC2=CN=C1,-,R946383,M1106869,-,-,4-hydroxyisoquinoline,Koerner,charochkina,A5793,-,-,-,8.7,Log unit,25,?C,Oc1cncc2c1cccc2,3
OC1=C2C=CC=CC2=CN=C1,-,R946384,M1106869,-,-,4-hydroxyisoquinoline,Koerner,charochkina,A5793,-,-,-,4.74,Log unit,25,?C,n1cc(O)c2ccccc2c1,0
OC1=CC=CC2=CN=CC=C12,-,R946385,M71275,-,-,5-Hydroxyisoquinoline,Koerner,charochkina,A5793,-,-,-,5.38,Log unit,25,?C,n1ccc2c(cccc2c1)O,0
OC1=CC2=C(C=C1)C=NC=C2,-,R946386,M988902,-,-,6-hydroxy-isoquinoline,Koerner,charochkina,A5793,-,-,-,5.83,Log unit,25,?C,n1cc2ccc(O)cc2cc1,4
OC1=CC2=C(C=C1)C=NC=C2,-,R946387,M988902,-,-,6-hydroxy-isoquinoline,Koerner,charochkina,A5793,-,-,-,9.17,Log unit,25,?C,Oc1ccc2cnccc2c1,9
OC1=CC2=CN=CC=C2C=C1,-,R946388,M775562,-,-,7-hydroxyisoquinoline,Koerner,charochkina,A5793,-,-,-,5.68,Log unit,25,?C,n1ccc2ccc(cc2c1)O,0
OC1=CC=CC2=CC=NC=C12,-,R946389,M1106870,-,-,8-hydroxyisoquinoline,Koerner,charochkina,A5793,-,-,-,5.64,Log unit,25,?C,n1ccc2cccc(c2c1)O,0
SC1[NH2+]CCC2CCCCC12,-,R946390,M1107301,-,-,1-mercaptoisoquinoline,Koerner,charochkina,A5793,-,-,-,-1.9,Log unit,25,?C,SC1[NH2+][CH][CH]C2C1[CH][CH][CH][CH]2,0
[S-]C1=NC=CC2=C1C=CC=C2,-,R946391,M1106871,-,-,1-mercaptoisoquinoline,Koerner,charochkina,A5793,-,-,-,10.86,Log unit,25,?C,n1c([S-])c2ccccc2cc1,2
SC1CC2CCCCC2C[NH2+]1,-,R946392,M1107302,-,-,3-mercaptoisoquinoline,Koerner,charochkina,A5793,-,-,-,0.39,Log unit,25,?C,SC1[NH2+][CH]C2[CH][CH][CH][CH]C2[CH]1,0
[S-]C1=NC=C2C=CC=CC2=C1,-,R946393,M1106872,-,-,3-mercaptoisoquinoline,Koerner,charochkina,A5793,-,-,-,8.62,Log unit,25,?C,n1c([S-])cc2c(c1)cccc2,2
COC1=NC=CC2=CC=CC=C12,-,R946394,M1106873,-,-,1-methoxyisoquinoline,Koerner,charochkina,A5793,-,-,-,3.01,Log unit,25,?C,n1c(c2ccccc2cc1)OC,5
CC1=CC2=CC=CC=C2C=N1,-,R946395,M2964,-,-,3-Methylisoquinoline,Koerner,charochkina,A5793,-,-,-,5.64,Log unit,25,?C,n1cc2ccccc2cc1C,5
CSC1=NC=CC2=C1C=CC=C2,-,R946396,M1106874,-,-,1-methylthioisoquinoline,Koerner,charochkina,A5793,-,-,-,3.89,Log unit,25,?C,n1c(SC)c2ccccc2cc1,3
CSC1=NC=C2C=CC=CC2=C1,-,R946397,M1106875,-,-,3-methylthioisoquinoline,Koerner,charochkina,A5793,-,-,-,3.37,Log unit,25,?C,n1c(SC)cc2c(c1)cccc2,3
O=N(=O)C1=CN=CC2=CC=CC=C12,-,R946398,M1106876,-,-,4-nitroisoquinoline,Koerner,charochkina,A5793,-,-,-,1.35,Log unit,25,?C,n1cc2ccccc2c(c1)N(=O)=O,5
O=N(=O)C1=CC=CC2=CN=CC=C12,-,R946399,M22334,-,-,5-Nitroisoquinoline,Koerner,charochkina,A5793,-,-,-,3.49,Log unit,25,?C,n1ccc2c(cccc2c1)N(=O)=O,0
O=N(=O)C1=CC2=C(C=C1)C=NC=C2,-,R946400,M1106877,-,-,6-nitro-isoquinoline,Koerner,charochkina,A5793,-,-,-,3.43,Log unit,25,?C,n1cc2ccc(cc2cc1)N(=O)=O,4
O=N(=O)C1=CC2=C(C=CN=C2)C=C1,-,R946401,M1106878,-,-,7-nitro-isoquinoline,Koerner,charochkina,A5793,-,-,-,3.57,Log unit,25,?C,n1ccc2ccc(cc2c1)N(=O)=O,5
O=N(=O)C1=CC=CC2=CC=NC=C12,-,R946402,M1106879,-,-,8-nitroisoquinoline,Koerner,charochkina,A5793,-,-,-,3.55,Log unit,25,?C,n1ccc2cccc(c2c1)N(=O)=O,0