"SMILES","CASRN","RECORDID","MOLECULEID","EXTERNALID","N","NAME","NAME","INTRODUCER","MODIFIER","ARTICLEID","PUBMEDID","PAGE","TABLE","pKa (smiles as ob. cond.) {measured}","UNIT {pKa (smiles as ob. cond.)}","pKa (smiles as ob. cond.) {measured, converted}","UNIT {pKa (smiles as ob. cond.)}","Ionizable centre (smiles)","IC group detected","AtomNR of IC","groupsAndICs","IC smiles given","IC group given","Temperature","UNIT {Temperature}","MultiGroupDetection","COMMENTS","INCHI_KEY"
"COC1=CC2=C(C=C1)N=CC=C2Cl","-","R946456","M1106895","-","-","4-chloro-6-methoxyquinoline","-","Koerner","charochkina","A5793","-","-","-","3.93","Log unit","3.93","Log unit","n1ccc(Cl)c2cc(ccc12)OC","4","","{n=[4]}","Cl-c(ccn1)c(cc(c2)OC)c1c2","n","25.0","?C","","-","BEOVBLPXVFICSP-UHFFFAOYSA"
"COC1=CC2=C(C=C1)C(Cl)=CC=N2","-","R946457","M1106896","-","-","4-chloro-7-methoxyquinoline","-","Koerner","charochkina","A5793","-","-","-","4.32","Log unit","4.32","Log unit","n1ccc(Cl)c2ccc(OC)cc12","4","","{n=[4]}","Cl-c(ccn1)c(ccc2OC)c1c2","n","25.0","?C","","-","UKTYNFPTZDSBLR-UHFFFAOYSA"
"CC1=CC2=C(C=C1)N=CC=C2Cl","-","R946458","M1106897","-","-","4-chloro-6-methylquinoline","-","Koerner","charochkina","A5793","-","-","-","3.96","Log unit","3.96","Log unit","n1ccc(Cl)c2cc(ccc12)C","4","","{n=[4]}","Cl-c(ccn1)c(cc(c2)C)c1c2","n","25.0","?C","","-","HZWWPOQFLMUYOX-UHFFFAOYSA"
"CC1=CC2=C(C=C1)C(Cl)=CC=N2","-","R946459","M1106898","-","-","4-chloro-7-methylquinoline","-","Koerner","charochkina","A5793","-","-","-","4.0","Log unit","4.0","Log unit","n1ccc(Cl)c2ccc(C)cc12","4","","{n=[4]}","Cl-c(ccn1)c(ccc2C)c1c2","n","25.0","?C","","-","SLBWENCMEQRYEG-UHFFFAOYSA"
"NC1=NC2=CC=CC=C2C(N)=C1","-","R946460","M1106899","-","-","2,4-diaminoquinoline","-","Koerner","charochkina","A5793","-","-","-","9.4","Log unit","9.4","Log unit","n1c2ccccc2c(cc1N)N","9","","{n=[9], nr2=[6, 11]}","c(ccc1c(c2)N)cc1nc2N","n","25.0","?C","","-","NKXSJFUIFJMXED-UHFFFAOYSA"
"ClC1=CC=C2N=CC=C(Cl)C2=C1","-","R946461","M1106900","-","-","4,6-dichloroquinoline","-","Koerner","charochkina","A5793","-","-","-","2.81","Log unit","2.81","Log unit","n1c2ccc(Cl)cc2c(Cl)cc1","5","","{n=[5]}","Cl-c(ccc1nc2)cc1c(Cl)c2","n","25.0","?C","","-","JZGUMSTXLPEMFW-UHFFFAOYSA"
"ClC1=CC=C2C(Cl)=CC=NC2=C1","-","R946462","M17831","-","-","4,7-Dichloroquinoline","-","Koerner","charochkina","A5793","-","-","-","2.8","Log unit","2.8","Log unit","n1c2cc(Cl)ccc2c(Cl)cc1","10","","{n=[10]}","Cl-c(ccc1c(Cl)c2)cc1nc2","n","25.0","?C","","-","HXEWMTXDBOQQKO-UHFFFAOYSA"
"OC1=C2N=CC=CC2=C(Cl)C=C1Cl","-","R946463","M23614","-","-","5,7-Dichloro-8-hydroxyquinoline","-","Koerner","charochkina","A5793","-","-","-","7.62","Log unit","7.62","Log unit","Oc1c(Cl)cc(Cl)c2cccnc12","9","","{n=[11], oh=[9]}","Cl-c(cc(Cl)c1cc2)c(O)c1nc2","oh","25.0","?C","","-","WDFKMLRRRCGAKS-UHFFFAOYSA"
"OC1=C2N=CC=CC2=C(Cl)C=C1Cl","-","R946464","M23614","-","-","5,7-Dichloro-8-hydroxyquinoline","-","Koerner","charochkina","A5793","-","-","-","2.89","Log unit","2.89","Log unit","n1c2c(c(Cl)cc(Cl)c2ccc1)O","11","","{n=[11], oh=[9]}","Cl-c(cc(Cl)c1cc2)c(O)c1nc2","n","25.0","?C","","-","WDFKMLRRRCGAKS-UHFFFAOYSA"
"CC1=CC2=CC=CC=C2N=C1C","-","R946465","M25654","-","-","2,3-DIMETHYLQUINOLINE","-","Koerner","charochkina","A5793","-","-","-","4.94","Log unit","4.94","Log unit","n1c2ccccc2cc(C)c1C","9","","{n=[9]}","c(ccc1cc2C)cc1nc2C","n","25.0","?C","","-","FBOFHVFMPNNIKN-UHFFFAOYSA"
"CC1=CC2=C(C=C1)N=C(C)C=C2","-","R946466","M23897","-","-","2,6-Dimethylquinoline","-","Koerner","charochkina","A5793","-","-","-","5.78","Log unit","5.78","Log unit","n1c(ccc2c1ccc(C)c2)C","0","","{n=[0]}","n(c(cc1)C)c(ccc2C)c1c2","n","25.0","?C","","-","JJPSZKIOGBRMHK-UHFFFAOYSA"
"CC1=NC2=C(O)C(=CC=C2C(C)=C1)S([O-])(=O)=O","-","R946467","M1106910","-","-","2,4-dimethyl-8-hydroxy-quinoline-7-sulfonic acid","-","Koerner","charochkina","A5793","-","-","-","10.14","Log unit","10.14","Log unit","Oc1c(S(=O)(=O)[O-])ccc2c(cc(nc12)C)C","12","","{n=[14], oh=[12]}","S(=O)(=O)([O-1])c(ccc1c(c2)C)c(O)c1nc2C","oh","25.0","?C","","-","RSHZFRNZLPBJRX-UHFFFAOYSA"
"CSC1=CC=CC2=C1N=C(C)C=C2C","-","R946468","M1106901","-","-","2,4-dimethyl-8-methylthioquinoline","-","Koerner","charochkina","A5793","-","-","-","4.88","Log unit","4.88","Log unit","n1c2c(SC)cccc2c(cc1C)C","7","","{n=[7]}","S(C)-c(ccc1)c(nc(c2)C)c1c2C","n","25.0","?C","","-","JWUFETBJSSRYID-UHFFFAOYSA"
"CSC1=CC(C)=CC2=C1N=CC=C2C","-","R946469","M1106902","-","-","4,6-dimethyl-8-methylthioquinoline","-","Koerner","charochkina","A5793","-","-","-","4.54","Log unit","4.54","Log unit","n1c2c(SC)cc(cc2c(cc1)C)C","8","","{n=[8]}","S(C)-c(cc(c1)C)c(ncc2)c1c2C","n","25.0","?C","","-","WUNFHCUPGSKDGC-UHFFFAOYSA"
"FC1=CC2=C(C=CC=C2)N=C1","-","R946470","M120507","-","-","3-Fluoroquinoline","-","Koerner","charochkina","A5793","-","-","-","2.695","Log unit","2.695","Log unit","n1cc(F)cc2c1cccc2","0","","{n=[0]}","n(cc(F)c1)c(ccc2)c1c2","n","25.0","?C","","-","UFIGOYSEDNHKGT-UHFFFAOYSA"
"FC1=CC=CC2=C1C=CC=N2","-","R946471","M120504","-","-","5-Fluoroquinoline","-","Koerner","charochkina","A5793","-","-","-","3.955","Log unit","3.955","Log unit","n1cccc2c1cccc2F","0","","{n=[0]}","n(ccc1)c(ccc2)c1c2F","n","25.0","?C","","-","WMFXCDGQRHJFKL-UHFFFAOYSA"
"FC1=CC2=C(C=C1)N=CC=C2","-","R946472","M120506","-","-","6-Fluoroquinoline","-","Koerner","charochkina","A5793","-","-","-","4.28","Log unit","4.28","Log unit","n1cccc2c1ccc(F)c2","0","","{n=[0]}","n(ccc1)c(ccc2F)c1c2","n","25.0","?C","","-","RMDCSDVIVXJELQ-UHFFFAOYSA"
"FC1=CC2=C(C=CC=N2)C=C1","-","R946473","M120508","-","-","7-Fluoroquinoline","-","Koerner","charochkina","A5793","-","-","-","4.31","Log unit","4.31","Log unit","n1cccc2c1cc(F)cc2","0","","{n=[0]}","n(ccc1)c(cc(F)c2)c1c2","n","25.0","?C","","-","XUIRHRWOJCYEDJ-UHFFFAOYSA"
"FC1=CC=CC2=C1N=CC=C2","-","R946474","M20332","-","-","8-FLUOROQUINOLINE","-","Koerner","charochkina","A5793","-","-","-","3.375","Log unit","3.375","Log unit","n1cccc2c1c(F)ccc2","0","","{n=[0]}","n(ccc1)c(c(F)cc2)c1c2","n","25.0","?C","","-","RNAAXKYOTPSFGV-UHFFFAOYSA"
"FC1CCC(S)C2[NH2+]CCCC12","-","R946475","M1107308","-","-","5-fluoro-8-mercaptoquinoline","-","Koerner","charochkina","A5793","-","-","-","1.97","Log unit","1.97","Log unit","SC1[CH][CH]C(F)C2C1[NH2+][CH][CH][CH]2","0","","{sh=[0]}","S-c(ccc1F)c([n+1]cc2)c1c2","sh","25.0","?C","","-","GQFDRGZEGMNFRM-UHFFFAOYSA"
"FC1=CC=C([S-])C2=C1C=CC=N2","-","R946476","M1106903","-","-","5-fluoro-8-mercaptoquinoline","-","Koerner","charochkina","A5793","-","-","-","7.44","Log unit","7.44","Log unit","n1c2c([S-])ccc(F)c2ccc1","7","","{n=[7]}","[S-1]-c(ccc1F)c(ncc2)c1c2","n","25.0","?C","","-","MZKDXYJQFUIIQD-UHFFFAOYSA"
"NNC1=NC2=CC=CC=C2C=C1","-","R946477","M116203","-","-","2-Hydrazinoquinoline","-","Koerner","charochkina","A5793","-","-","-","7.82","Log unit","7.82","Log unit","n1c2ccccc2ccc1NN","8","","{n=[8], nr2=[10, 11]}","c(ccc1cc2)cc1nc2NN","n","25.0","?C","","-","QMVCLSHKMIGEFN-UHFFFAOYSA"
"NNC1=CC2=CC=CC=C2N=C1","-","R946478","M41387","-","-","3-hydrazinoquinoline","-","Koerner","charochkina","A5793","-","-","-","4.85","Log unit","4.85","Log unit","n1c2ccccc2cc(NN)c1","10","","{n=[10], nr2=[6, 7]}","c(ccc1cc2NN)cc1nc2","n","25.0","?C","","-","IISWOHCLTBUICM-UHFFFAOYSA"
"NNC1=CC=NC2=CC=CC=C12","-","R946479","M1106904","-","-","4-hydrazinoquinoline","-","Koerner","charochkina","A5793","-","-","-","8.85","Log unit","8.85","Log unit","n1c2ccccc2c(cc1)NN","10","","{n=[10], nr2=[6, 7]}","c(ccc1c(c2)NN)cc1nc2","n","25.0","?C","","-","MYGFXCLXHGITIQ-UHFFFAOYSA"
"NNC1=CC=CC2=C1C=CC=N2","-","R946480","M1106905","-","-","5-hydrazinoquinoline","-","Koerner","charochkina","A5793","-","-","-","5.36","Log unit","5.36","Log unit","n1cccc2c1cccc2NN","0","","{n=[0], nr2=[10, 11]}","n(ccc1)c(ccc2)c1c2NN","n","25.0","?C","","-","YZKWEHGEHPCODG-UHFFFAOYSA"
"NNC1=CC2=C(C=C1)N=CC=C2","-","R946481","M1106906","-","-","6-hydrazinoquinoline","-","Koerner","charochkina","A5793","-","-","-","5.5","Log unit","5.5","Log unit","n1cccc2c1ccc(NN)c2","0","","{n=[0], nr2=[8, 9]}","n(ccc1)c(ccc2NN)c1c2","n","25.0","?C","","-","CLEZMGKIRJUQCT-UHFFFAOYSA"
"NNC1=CC2=C(C=CC=N2)C=C1","-","R946482","M1106907","-","-","7-hydrazinoquinoline","-","Koerner","charochkina","A5793","-","-","-","6.71","Log unit","6.71","Log unit","n1cccc2c1cc(cc2)NN","0","","{n=[0], nr2=[8, 9]}","n(ccc1)c(cc(c2)NN)c1c2","n","25.0","?C","","-","HQGSIFNFGXGLCW-UHFFFAOYSA"
"NNC1=CC=CC2=C1N=CC=C2","-","R946483","M1106908","-","-","8-hydrazinoquinoline","-","Koerner","charochkina","A5793","-","-","-","5.27","Log unit","5.27","Log unit","n1cccc2c1c(ccc2)NN","0","","{n=[0], nr2=[8, 9]}","n(ccc1)c(c(cc2)NN)c1c2","n","25.0","?C","","-","HJJRRHBSMQOZQH-UHFFFAOYSA"
"CC1=CC(NN)=NC2=CC=CC=C12","-","R946484","M1106909","-","-","2-hydrazino-4-methylquinoline","-","Koerner","charochkina","A5793","-","-","-","8.35","Log unit","8.35","Log unit","n1c2ccccc2c(cc1NN)C","9","","{n=[9], nr2=[11, 12]}","c(ccc1c(c2)C)cc1nc2NN","n","25.0","?C","","-","FLDYBLAUDDQRAB-UHFFFAOYSA"
"[O-]C1=NC2=C(C=CC=C2)C=C1","-","R946485","M6196","-","-","2-Hydroxyquinoline","-","Koerner","charochkina","A5793","-","-","-","11.76","Log unit","11.76","Log unit","n1c(ccc2c1cccc2)[O-]","0","","{n=[0]}","n(c(cc1)[O-1])c(ccc2)c1c2","n","25.0","?C","","-","LISFMEBWQUVKPJ-UHFFFAOYSA"
"OC1CCC2CCCCC2[NH2+]1","-","R946486","M1107309","-","-","2-Hydroxyquinoline","-","Koerner","charochkina","A5793","-","-","-","-0.31","Log unit","-0.31","Log unit","OC1[NH2+]C2[CH][CH][CH][CH]C2[CH][CH]1","4","","{oh=[4]}","[n+1](c(cc1)O)c(ccc2)c1c2","oh","25.0","?C","","-","BELHERCCHRDDTH-UHFFFAOYSA"
"OC1=CC2=C(C=CC=C2)N=C1","-","R946487","M21901","-","-","3-Hydroxyquinoline","-","Koerner","charochkina","A5793","-","-","-","8.08","Log unit","8.08","Log unit","Oc1cnc2ccccc2c1","4","","{n=[0], oh=[4]}","n(cc(c1)O)c(ccc2)c1c2","oh","25.0","?C","","-","IQQDNMHUOLMLNJ-UHFFFAOYSA"
"[O-]C1=CC=NC2=C1C=CC=C2","-","R946488","M8690","-","-","4-Hydroxyquinoline","-","Koerner","charochkina","A5793","-","-","-","11.28","Log unit","11.28","Log unit","n1ccc([O-])c2c1cccc2","0","","{n=[0]}","n(ccc1[O-1])c(ccc2)c1c2","n","25.0","?C","","-","PMZDQRJGMBOQBF-UHFFFAOYSA"
"OC1CC[NH2+]C2CCCCC12","-","R946489","M1107310","-","-","4-Hydroxyquinoline","-","Koerner","charochkina","A5793","-","-","-","2.2","Log unit","2.2","Log unit","OC1[CH][CH][NH2+]C2[CH][CH][CH][CH]C12","4","","{oh=[4]}","[n+1](ccc1O)c(ccc2)c1c2","oh","25.0","?C","","-","MLQARXBFLAEGNM-UHFFFAOYSA"
"OC1=CC=CC2=C1C=CC=N2","-","R946490","M3602","-","-","5-hydroxyquinoline","-","Koerner","charochkina","A5793","-","-","-","8.56","Log unit","8.56","Log unit","Oc1c2c(nccc2)ccc1","10","","{n=[0], oh=[10]}","n(ccc1)c(ccc2)c1c2O","oh","25.0","?C","","-","GYESAYHWISMZOK-UHFFFAOYSA"
"OC1=CC2=C(C=C1)N=CC=C2","-","R946491","M8298","-","-","6-hydroxyquinoline","-","Koerner","charochkina","A5793","-","-","-","8.9","Log unit","8.9","Log unit","Oc1ccc2ncccc2c1","8","","{n=[0], oh=[8]}","n(ccc1)c(ccc2O)c1c2","oh","25.0","?C","","-","OVYWMEWYEJLIER-UHFFFAOYSA"
"OC1=CC2=C(C=CC=N2)C=C1","-","R946492","M21902","-","-","7-HYDROXYQUINOLINE","-","Koerner","charochkina","A5793","-","-","-","8.87","Log unit","8.87","Log unit","Oc1cc2ncccc2cc1","8","","{n=[0], oh=[8]}","n(ccc1)c(cc(c2)O)c1c2","oh","25.0","?C","","-","XCRPPAPDRUBKRJ-UHFFFAOYSA"
"OC1=CC=CC2=C1N=CC=C2","-","R946493","M6646","-","-","8-HYDROXYQUINOLINE","-","Koerner","charochkina","A5793","-","-","-","9.81","Log unit","9.81","Log unit","Oc1c2ncccc2ccc1","8","","{n=[0], oh=[8]}","n(ccc1)c(c(cc2)O)c1c2","oh","25.0","?C","","-","MCJGNVYPOGVAJF-UHFFFAOYSA"
"CC1=CC2=C(N=C1C)C(O)=CC=C2","-","R946494","M47428","-","-","8-hydroxy-2,3-dimethylquinoline","-","Koerner","charochkina","A5793","-","-","-","5.87","Log unit","5.87","Log unit","n1c(c(cc2c1c(ccc2)O)C)C","0","","{n=[0], oh=[10]}","n(c(c(c1)C)C)c(c(cc2)O)c1c2","n","25.0","?C","","-","ZBLCWYDHYTWUSK-UHFFFAOYSA"
"CC1=CC2=C(N=C1C)C(O)=CC=C2","-","R946495","M47428","-","-","8-hydroxy-2,3-dimethylquinoline","-","Koerner","charochkina","A5793","-","-","-","10.2","Log unit","10.2","Log unit","Oc1c2nc(c(cc2ccc1)C)C","10","","{n=[0], oh=[10]}","n(c(c(c1)C)C)c(c(cc2)O)c1c2","oh","25.0","?C","","-","ZBLCWYDHYTWUSK-UHFFFAOYSA"
"CC1=NC2=C(C=CC=C2O)C(C)=C1","-","R946496","M124280","-","-","8-hydroxy-2,4-dimethylquinoline","-","Koerner","charochkina","A5793","-","-","-","6.2","Log unit","6.2","Log unit","n1c(cc(C)c2c1c(ccc2)O)C","0","","{n=[0], oh=[10]}","n(c(cc1C)C)c(c(cc2)O)c1c2","n","25.0","?C","","-","UXFZNPGAWHMSRK-UHFFFAOYSA"
"CC1=NC2=C(C=CC=C2O)C(C)=C1","-","R946497","M124280","-","-","8-hydroxy-2,4-dimethylquinoline","-","Koerner","charochkina","A5793","-","-","-","10.6","Log unit","10.6","Log unit","Oc1c2nc(cc(C)c2ccc1)C","10","","{n=[0], oh=[10]}","n(c(cc1C)C)c(c(cc2)O)c1c2","oh","25.0","?C","","-","UXFZNPGAWHMSRK-UHFFFAOYSA"
"CC1=C(C)C2=C(N=C1)C(O)=CC=C2","-","R946498","M124318","-","-","8-hydroxy-3,4-dimethylquinoline","-","Koerner","charochkina","A5793","-","-","-","10.05","Log unit","10.05","Log unit","Oc1c2ncc(c(C)c2ccc1)C","10","","{n=[0], oh=[10]}","n(cc(c1C)C)c(c(cc2)O)c1c2","oh","25.0","?C","","-","LNNMENPNLRCNSR-UHFFFAOYSA"
"CC1=NC2=C(O)C(=CC=C2C(C)=C1)S([O-])(=O)=O","-","R946499","M1106910","-","-","8-hydroxy-2,4-dimethyl-7(?)-sulphoquinoline","-","Koerner","charochkina","A5793","-","-","-","5.2","Log unit","5.2","Log unit","n1c2c(c(S(=O)(=O)[O-])ccc2c(cc1C)C)O","14","","{n=[14], oh=[12]}","S(=O)(=O)([O-1])-c(ccc1c(c2)C)c(O)c1nc2C","n","25.0","?C","","-","RSHZFRNZLPBJRX-UHFFFAOYSA"
"OC1=CC=C(I)C2=C1N=CC=C2","-","R946500","M49643","-","-","8-hydroxy-5-iodoquinoline","-","Koerner","charochkina","A5793","-","-","-","8.65","Log unit","8.65","Log unit","Oc1ccc(I)c2cccnc12","5","","{n=[11], oh=[5]}","I-c(ccc1O)c(ccc2)c1n2","oh","25.0","?C","","-","SUQZNPQQZDQDPJ-UHFFFAOYSA"
"OC1=CC=C(I)C2=C1N=CC=C2","-","R946501","M49643","-","-","8-hydroxy-5-iodoquinoline","-","Koerner","charochkina","A5793","-","-","-","3.48","Log unit","3.48","Log unit","n1c2c(c(I)ccc2O)ccc1","11","","{n=[11], oh=[5]}","I-c(ccc1O)c(ccc2)c1n2","n","25.0","?C","","-","SUQZNPQQZDQDPJ-UHFFFAOYSA"
"OC1=C2N=CC=CC2=C(C=C1I)S([O-])(=O)=O","-","R946502","M21588","-","-","8-hydroxy-7-iodo-5-sulphoquinoline","-","Koerner","charochkina","A5793","-","-","-","7.15","Log unit","7.15","Log unit","Oc1c(I)cc(S(=O)(=O)[O-])c2cccnc12","12","","{n=[14], oh=[12]}","I-c(cc(S(=O)(=O)[O-1])c1cc2)c(O)c1nc2","oh","25.0","?C","","-","ZBJWWKFMHOAPNS-UHFFFAOYSA"
"CC1=NC2=C(C=CC=C2O)C=C1","-","R946503","M7178","-","-","8-HYDROXY-2-METHYLQUINOLINE","-","Koerner","charochkina","A5793","-","-","-","10.3","Log unit","10.3","Log unit","Oc1c2nc(ccc2ccc1)C","9","","{n=[0], oh=[9]}","n(c(cc1)C)c(c(cc2)O)c1c2","oh","25.0","?C","","-","NBYLBWHHTUWMER-UHFFFAOYSA"
"CC1=NC2=C(C=CC=C2O)C=C1","-","R946504","M7178","-","-","8-HYDROXY-2-METHYLQUINOLINE","-","Koerner","charochkina","A5793","-","-","-","5.55","Log unit","5.55","Log unit","n1c(ccc2c1c(ccc2)O)C","0","","{n=[0], oh=[9]}","n(c(cc1)C)c(c(cc2)O)c1c2","n","25.0","?C","","-","NBYLBWHHTUWMER-UHFFFAOYSA"
"CC1=CC2=C(N=C1)C(O)=CC=C2","-","R946505","M145951","-","-","8-hydroxyl-3-methylquinoline","-","Koerner","charochkina","A5793","-","-","-","9.74","Log unit","9.74","Log unit","Oc1c2ncc(cc2ccc1)C","9","","{n=[0], oh=[9]}","n(cc(c1)C)c(c(cc2)O)c1c2","oh","25.0","?C","","-","LHPOFWYKNOUJJN-UHFFFAOYSA"
"CC1=CC2=C(N=C1)C(O)=CC=C2","-","R946506","M145951","-","-","8-hydroxyl-3-methylquinoline","-","Koerner","charochkina","A5793","-","-","-","4.94","Log unit","4.94","Log unit","n1cc(cc2c1c(ccc2)O)C","0","","{n=[0], oh=[9]}","n(cc(c1)C)c(c(cc2)O)c1c2","n","25.0","?C","","-","LHPOFWYKNOUJJN-UHFFFAOYSA"
"CC1=CC=NC2=C1C=CC=C2O","-","R946507","M8368","-","-","8-HYDROXY-4-METHYLQUINOLINE","-","Koerner","charochkina","A5793","-","-","-","10.0","Log unit","10.0","Log unit","Oc1c2nccc(C)c2ccc1","9","","{n=[0], oh=[9]}","n(ccc1C)c(c(cc2)O)c1c2","oh","25.0","?C","","-","OYUKRQOCPFZNHR-UHFFFAOYSA"
"CC1=NC2=C(C=C1)C(=CC=C2O)N=O","-","R946508","M296419","-","-","8-hydroxy-2-methyl-5-nitrosoquinoline","-","Koerner","charochkina","A5793","-","-","-","3.14","Log unit","3.14","Log unit","n1c(ccc2c1c(ccc2N=O)O)C","0","","{n=[0], oh=[9]}","n(c(cc1)C)c(c(cc2)O)c1c2N=O","n","25.0","?C","","-","QSQNAANHYDBULV-UHFFFAOYSA"
"CC1=NC2=C(C=C1)C(=CC=C2O)N=O","-","R946509","M296419","-","-","8-hydroxy-2-methyl-5-nitrosoquinoline","-","Koerner","charochkina","A5793","-","-","-","7.48","Log unit","7.48","Log unit","Oc1c2nc(ccc2c(cc1)N=O)C","9","","{n=[0], oh=[9]}","n(c(cc1)C)c(c(cc2)O)c1c2N=O","oh","25.0","?C","","-","QSQNAANHYDBULV-UHFFFAOYSA"
"CC1=NC2=C(C=C1)C(=CC=C2O)S([O-])(=O)=O","-","R946510","M124367","-","-","8-hydroxy-2-methyl-5-sulphoquinoline","-","Koerner","charochkina","A5793","-","-","-","9.3","Log unit","9.3","Log unit","Oc1ccc(S(=O)(=O)[O-])c2ccc(C)nc12","8","","{n=[15], oh=[8]}","S(=O)(=O)([O-1])-c(ccc1O)c(ccc2C)c1n2","oh","25.0","?C","","-","RDYCCKHYFOQHOD-UHFFFAOYSA"
"CC1=NC2=C(C=C1)C(=CC=C2O)S([O-])(=O)=O","-","R946511","M124367","-","-","8-hydroxy-2-methyl-5-sulphoquinoline","-","Koerner","charochkina","A5793","-","-","-","4.8","Log unit","4.8","Log unit","n1c2c(c(S(=O)(=O)[O-])ccc2O)ccc1C","15","","{n=[15], oh=[8]}","S(=O)(=O)([O-1])-c(ccc1O)c(ccc2C)c1n2","n","25.0","?C","","-","RDYCCKHYFOQHOD-UHFFFAOYSA"
"CC1=CC=NC2=C(O)C(=CC=C12)S([O-])(=O)=O","-","R946512","M1106911","-","-","8-hydroxy-4-methyl-7-sulphoquinoline","-","Koerner","charochkina","A5793","-","-","-","4.8","Log unit","4.8","Log unit","n1c2c(c(S(=O)(=O)[O-])ccc2c(cc1)C)O","14","","{n=[14], oh=[12]}","S(=O)(=O)([O-1])-c(ccc1c(c2)C)c(O)c1nc2","n","25.0","?C","","-","IRRCREKPVVOILP-UHFFFAOYSA"
"CC1=CC=NC2=C(O)C(=CC=C12)S([O-])(=O)=O","-","R946513","M1106911","-","-","8-hydroxy-4-methyl-7-sulphoquinoline","-","Koerner","charochkina","A5793","-","-","-","10.0","Log unit","10.0","Log unit","Oc1c(S(=O)(=O)[O-])ccc2c(ccnc12)C","12","","{n=[14], oh=[12]}","S(=O)(=O)([O-1])-c(ccc1c(c2)C)c(O)c1nc2","oh","25.0","?C","","-","IRRCREKPVVOILP-UHFFFAOYSA"
"CC1=C(C2=C(N=CC=C2)C(O)=C1)S([O-])(=O)=O","-","R946514","M1107311","-","-","8-hydroxy-6-methyl-5-sulphoquinoline","-","Koerner","charochkina","A5793","-","-","-","8.7","Log unit","8.7","Log unit","Oc1cc(c(S(=O)(=O)[O-])c2cccnc12)C","8","","{n=[15], oh=[8]}","S(=O)(=O)([O-1])-c(c(cc1O)C)c(ccc2)c1n2","oh","25.0","?C","","-","XSZAFFNTZZCCAX-UHFFFAOYSA"
"OC1=C(C=C(C2=C1N=CC=C2)S([O-])(=O)=O)N=NC1=CC=C(C=C1)N(=O)=O","-","R946515","M1106912","-","-","8-hydroxy-7-(4-nitrophenylazo)-5-sulphoquinoline","-","Koerner","charochkina","A5793","-","-","-","3.14","Log unit","3.14","Log unit","n1c2c(c(S(=O)(=O)[O-])cc(c2O)N=Nc2ccc(N(=O)=O)cc2)ccc1","25","","{n=[25], nr2=[15], oh=[8]}","S(=O)(=O)([O-1])-c(cc(c1O)N=N-c(ccc2N(=O)=O)cc2)c(ccc3)c1n3","n","25.0","?C","","-","GKVHKLYQKBRYHI-UHFFFAOYSA"
"OC1=CC=C(N=O)C2=C1N=CC=C2","-","R946516","M28367","-","-","8-Hydroxy-5-nitrosoquinoline","-","Koerner","charochkina","A5793","-","-","-","2.33","Log unit","2.33","Log unit","n1cccc2c1c(ccc2N=O)O","0","","{n=[0], oh=[8]}","n(ccc1)c(c(cc2)O)c1c2N=O","n","25.0","?C","","-","RZWRYPGAUIOOMK-UHFFFAOYSA"
"OC1=CC=C(N=O)C2=C1N=CC=C2","-","R946517","M28367","-","-","8-Hydroxy-5-nitrosoquinoline","-","Koerner","charochkina","A5793","-","-","-","7.75","Log unit","7.75","Log unit","Oc1c2ncccc2c(cc1)N=O","8","","{n=[0], oh=[8]}","n(ccc1)c(c(cc2)O)c1c2N=O","oh","25.0","?C","","-","RZWRYPGAUIOOMK-UHFFFAOYSA"
"OC1=C(C=C(C2=C1N=CC=C2)S([O-])(=O)=O)N(=O)=O","-","R946518","M1106913","-","-","8-hydroxy-7-nitro-5-sulphoquinoline","-","Koerner","charochkina","A5793","-","-","-","1.94","Log unit","1.94","Log unit","n1c2c(c(S(=O)(=O)[O-])cc(c2O)N(=O)=O)ccc1","17","","{n=[17], nr2=[9], oh=[8]}","S(=O)(=O)([O-1])-c(cc(c1O)N(=O)=O)c(ccc2)c1n2","n","25.0","?C","","-","QSIZKIGPOVCSFN-UHFFFAOYSA"