"SMILES","CASRN","RECORDID","MOLECULEID","EXTERNALID","N","NAME","NAME","INTRODUCER","MODIFIER","ARTICLEID","PUBMEDID","PAGE","TABLE","pKa (smiles as ob. cond.) {measured}","UNIT {pKa (smiles as ob. cond.)}","pKa (smiles as ob. cond.) {measured, converted}","UNIT {pKa (smiles as ob. cond.)}","Ionizable centre (smiles)","IC group detected","AtomNR of IC","groupsAndICs","IC smiles given","IC group given","Temperature","UNIT {Temperature}","MultiGroupDetection","COMMENTS","INCHI_KEY"
"CC1=CC=C(N)C2=CC=CC=C12","-","R945640","M1107178","-","-","1-amino-4-methylnaphthalene","-","Koerner","charochkina","A5793","-","-","-","4.37","Log unit","4.37","Log unit","Nc1c2ccccc2c(cc1)C","11","","{nr2=[11]}","c(ccc1c(c2)C)cc1c(c2)N","nr2","25.0","?C","","-","MQFYUZCANYLWEI-UHFFFAOYSA"
"CC1=CC(N)=CC2=CC=CC=C12","-","R945641","M1107179","-","-","2-amino-4-methylnaphthalene","-","Koerner","charochkina","A5793","-","-","-","4.31","Log unit","4.31","Log unit","Nc1cc2ccccc2c(c1)C","11","","{nr2=[11]}","c(ccc1c(c2)C)cc1cc2N","nr2","25.0","?C","","-","YKRALQDDKKNEEZ-UHFFFAOYSA"
"CS(=O)(=O)C1=CC(N)=C2C=CC=CC2=C1","-","R945642","M1107180","-","-","1-amino-3-methylsulphonylnaphthalene","-","Koerner","charochkina","A5793","-","-","-","2.04","Log unit","2.04","Log unit","Nc1cc(S(=O)(=O)C)cc2c1cccc2","7","","{nr2=[7]}","S(=O)(=O)(C)-c(cc(N)c1cc2)cc1cc2","nr2","25.0","?C","","-","PXKWUBBKWSETLE-UHFFFAOYSA"
"CS(=O)(=O)C1=CC=C(N)C2=C1C=CC=C2","-","R945643","M1107181","-","-","1-amino-4-methylsulphonylnaphthalene","-","Koerner","charochkina","A5793","-","-","-","0.8","Log unit","0.8","Log unit","Nc1ccc(S(=O)(=O)C)c2ccccc12","8","","{nr2=[8]}","S(=O)(=O)(C)-c(ccc1N)c(ccc2)c1c2","nr2","25.0","?C","","-","LSVIPFKLSMZCPW-UHFFFAOYSA"
"CS(=O)(=O)C1=CC=CC2=C1C=CC=C2N","-","R945644","M1107182","-","-","1-amino-5-methylsulphonylnaphthalene","-","Koerner","charochkina","A5793","-","-","-","2.77","Log unit","2.77","Log unit","Nc1c2cccc(c2ccc1)S(=O)(=O)C","4","","{nr2=[4]}","c1cc2c(N)cccc2c(S(=O)(=O)C)c1","nr2","25.0","?C","","-","CLIVBZOFLLDABH-UHFFFAOYSA"
"CS(=O)(=O)C1=CC=C2C(N)=CC=CC2=C1","-","R945645","M1107183","-","-","1-amino-6-methylsulphonylnaphthalene","-","Koerner","charochkina","A5793","-","-","-","2.97","Log unit","2.97","Log unit","Nc1c2ccc(S(=O)(=O)C)cc2ccc1","10","","{nr2=[10]}","S(=O)(=O)(C)-c(ccc1c(c2)N)cc1cc2","nr2","25.0","?C","","-","AECPBDYZBSCWCF-UHFFFAOYSA"
"CS(=O)(=O)C1=CC=C2C=CC=C(N)C2=C1","-","R945646","M1107184","-","-","1-amino-7-methylsulphonylnaphthalene","-","Koerner","charochkina","A5793","-","-","-","2.71","Log unit","2.71","Log unit","Nc1c2cc(S(=O)(=O)C)ccc2ccc1","14","","{nr2=[14]}","S(=O)(=O)(C)-c(ccc1cc2)cc1c(c2)N","nr2","25.0","?C","","-","IXRBICDGFFXCBO-UHFFFAOYSA"
"CS(=O)(=O)C1=CC=CC2=C1C(N)=CC=C2","-","R945647","M1107185","-","-","1-amino-8-methylsulphonylnaphthalene","-","Koerner","charochkina","A5793","-","-","-","2.06","Log unit","2.06","Log unit","Nc1c2c(S(=O)(=O)C)cccc2ccc1","12","","{nr2=[12]}","S(=O)(=O)(C)-c(ccc1)c(c(cc2)N)c1c2","nr2","25.0","?C","","-","VUTKVOINBFMGHU-UHFFFAOYSA"
"CS(=O)(=O)C1=C(N)C=CC2=C1C=CC=C2","-","R945648","M1107186","-","-","2-amino-1-methylsulphonylnaphthalene","-","Koerner","charochkina","A5793","-","-","-","-0.55","Log unit","-0.55","Log unit","Nc1c(S(=O)(=O)C)c2ccccc2cc1","8","","{nr2=[8]}","S(=O)(=O)(C)-c(c(cc1)N)c(ccc2)c1c2","nr2","25.0","?C","","-","NWGAGZKSPUGTKW-UHFFFAOYSA"
"CS(=O)(=O)C1=CC(N)=CC2=C1C=CC=C2","-","R945649","M1107187","-","-","2-amino-4-methylsulphonylnaphthalene","-","Koerner","charochkina","A5793","-","-","-","2.61","Log unit","2.61","Log unit","Nc1cc(S(=O)(=O)C)c2ccccc2c1","8","","{nr2=[8]}","S(=O)(=O)(C)-c(cc(c1)N)c(ccc2)c1c2","nr2","25.0","?C","","-","JXSVVVHXXCTBTK-UHFFFAOYSA"
"CS(=O)(=O)C1=CC=CC2=C1C=CC(N)=C2","-","R945650","M1107188","-","-","2-amino-5-methylsulphonylnaphthalene","-","Koerner","charochkina","A5793","-","-","-","3.07","Log unit","3.07","Log unit","Nc1ccc2c(S(=O)(=O)C)cccc2c1","12","","{nr2=[12]}","S(=O)(=O)(C)-c(ccc1)c(ccc2N)c1c2","nr2","25.0","?C","","-","QMHWFKGHIYSRNL-UHFFFAOYSA"
"CS(=O)(=O)C1=CC=C2C=C(N)C=CC2=C1","-","R945651","M1107189","-","-","2-amino-6-methylsulphonylnaphthalene","-","Koerner","charochkina","A5793","-","-","-","2.77","Log unit","2.77","Log unit","Nc1cc2ccc(S(=O)(=O)C)cc2cc1","10","","{nr2=[10]}","S(=O)(=O)(C)-c(ccc1cc2N)cc1cc2","nr2","25.0","?C","","-","SOXXVYGTGNBISK-UHFFFAOYSA"
"CS(=O)(=O)C1=CC=C2C=CC(N)=CC2=C1","-","R945652","M1107190","-","-","2-amino-7-methylsulphonylnaphthalene","-","Koerner","charochkina","A5793","-","-","-","3.12","Log unit","3.12","Log unit","Nc1cc2cc(S(=O)(=O)C)ccc2cc1","14","","{nr2=[14]}","S(=O)(=O)(C)-c(ccc1cc2)cc1cc2N","nr2","25.0","?C","","-","WVZKRRGAIJWARN-UHFFFAOYSA"
"CS(=O)(=O)C1=CC=CC2=C1C=C(N)C=C2","-","R945653","M1107191","-","-","2-amino-8-methylsulphonylnaphthalene","-","Koerner","charochkina","A5793","-","-","-","2.7","Log unit","2.7","Log unit","Nc1cc2c(S(=O)(=O)C)cccc2cc1","12","","{nr2=[12]}","S(=O)(=O)(C)-c(ccc1)c(cc(c2)N)c1c2","nr2","25.0","?C","","-","RWUFBZCBKDLNKZ-UHFFFAOYSA"
"NC1=C(C=CC2=CC=CC=C12)N(=O)=O","-","R945654","M1107192","-","-","1-amino-2-nitronaphthalene","-","Koerner","charochkina","A5793","-","-","-","-1.74","Log unit","-1.74","Log unit","Nc1c2ccccc2ccc1N(=O)=O","5","","{nr2=[5, 7]}","c(ccc1c(N)c2N(=O)=O)cc1cc2","nr2","25.0","?C","true","-","SMAJHKXZBICXLS-UHFFFAOYSA"
"NC1=CC(=CC2=CC=CC=C12)N(=O)=O","-","R945655","M1107193","-","-","1-amino-3-nitro-naphthalene","-","Koerner","charochkina","A5793","-","-","-","2.07","Log unit","2.07","Log unit","Nc1c2ccccc2cc(c1)N(=O)=O","6","","{nr2=[6, 11]}","c(ccc1c(c2)N)cc1cc2N(=O)=O","nr2","25.0","?C","true","-","FHVBVMVYNGVYDE-UHFFFAOYSA"
"NC1=CC=C(C2=CC=CC=C12)N(=O)=O","-","R945656","M67732","-","-","1-amino-4-nitro-naphthalene","-","Koerner","charochkina","A5793","-","-","-","0.54","Log unit","0.54","Log unit","N(=O)(=O)c1c2ccccc2c(cc1)N","6","","{nr2=[6, 13]}","c(ccc1c(c2)N(=O)=O)cc1c(c2)N","nr2","25.0","?C","true","-","BVPJPRYNQHAOPQ-UHFFFAOYSA"
"NC1=C2C=CC=C(C2=CC=C1)N(=O)=O","-","R945657","M774712","-","-","1-amino-5-nitronaphthalene","-","Koerner","charochkina","A5793","-","-","-","2.73","Log unit","2.73","Log unit","Nc1cccc2c1cccc2N(=O)=O","3","","{nr2=[3, 11]}","c(cc(N)c1cc2)cc1c(c2)N(=O)=O","nr2","25.0","?C","true","-","WEWILNPCZSSAIJ-UHFFFAOYSA"
"NC1=C2C=CC(=CC2=CC=C1)N(=O)=O","-","R945658","M1107194","-","-","1-amino-6-nitronaphthalene","-","Koerner","charochkina","A5793","-","-","-","2.89","Log unit","2.89","Log unit","Nc1cccc2c1ccc(c2)N(=O)=O","3","","{nr2=[3, 11]}","c(cc(N)c1cc2)cc1cc2N(=O)=O","nr2","25.0","?C","true","-","OJYQYDTYUWXLSE-UHFFFAOYSA"
"NC1=C2C=C(C=CC2=CC=C1)N(=O)=O","-","R945659","M1107195","-","-","1-amino-7-nitronaphthalene","-","Koerner","charochkina","A5793","-","-","-","2.55","Log unit","2.55","Log unit","Nc1cccc2c1cc(N(=O)=O)cc2","3","","{nr2=[3, 7]}","c(cc(N)c1cc2N(=O)=O)cc1cc2","nr2","25.0","?C","true","-","LCFRYFXEODXQHS-UHFFFAOYSA"
"NC1=C2C(C=CC=C2N(=O)=O)=CC=C1","-","R945660","M1107196","-","-","1-amino-8-nitronaphthalene","-","Koerner","charochkina","A5793","-","-","-","2.79","Log unit","2.79","Log unit","Nc1cccc2c1c(ccc2)N(=O)=O","3","","{nr2=[3, 7]}","c(cc(N)c1c(c2)N(=O)=O)cc1cc2","nr2","25.0","?C","true","-","SOOKWSYBWVCXEB-UHFFFAOYSA"
"NC1=C(C2=CC=CC=C2C=C1)N(=O)=O","-","R945661","M67144","-","-","2-Amino-1-nitronaphthalene","-","Koerner","charochkina","A5793","-","-","-","-0.85","Log unit","-0.85","Log unit","Nc1c(c2ccccc2cc1)N(=O)=O","6","","{nr2=[6, 7]}","c(ccc1c(c2N)N(=O)=O)cc1cc2","nr2","25.0","?C","true","-","JNWGFQCTJCIODS-UHFFFAOYSA"
"NC1=CC2=CC=CC=C2C(=C1)N(=O)=O","-","R945662","M1107197","-","-","2-amino-4-nitro-naphthalene","-","Koerner","charochkina","A5793","-","-","-","2.43","Log unit","2.43","Log unit","N(=O)(=O)c1c2ccccc2cc(c1)N","6","","{nr2=[6, 13]}","c(ccc1c(c2)N(=O)=O)cc1cc2N","nr2","25.0","?C","true","-","QMXYWTRTKVSGPG-UHFFFAOYSA"
"NC1=CC2=C(C=C1)C(=CC=C2)N(=O)=O","-","R945663","M1107198","-","-","2-amino-5-nitro-naphthalene","-","Koerner","charochkina","A5793","-","-","-","3.01","Log unit","3.01","Log unit","N(=O)(=O)c1c2ccc(cc2ccc1)N","8","","{nr2=[8, 13]}","c(cc(c1cc2)c(c2)N(=O)=O)c(c1)N","nr2","25.0","?C","true","-","PPYFMWXMDIAZSV-UHFFFAOYSA"
"NC1=CC2=C(C=C1)C=C(C=C2)N(=O)=O","-","R945664","M147724","-","-","2-amino-6-nitro-naphthalene","-","Koerner","charochkina","A5793","-","-","-","2.62","Log unit","2.62","Log unit","N(=O)(=O)c1cc2ccc(cc2cc1)N","6","","{nr2=[6, 13]}","c(cc(cc(c1)N(=O)=O)c2c1)c(c2)N","nr2","25.0","?C","true","-","LNYJXDMWSMEVGQ-UHFFFAOYSA"
"NC1=CC2=C(C=C1)C=CC(=C2)N(=O)=O","-","R945665","M1107199","-","-","2-amino-7-nitro-naphthalene","-","Koerner","charochkina","A5793","-","-","-","3.1","Log unit","3.1","Log unit","N(=O)(=O)c1ccc2ccc(cc2c1)N","6","","{nr2=[6, 13]}","c(cc(ccc1N(=O)=O)c2c1)c(c2)N","nr2","25.0","?C","true","-","KRHGMPUYSBHCPE-UHFFFAOYSA"
"NC1=CC2=C(C=CC=C2N(=O)=O)C=C1","-","R945666","M1107200","-","-","2-amino-8-nitronaphthalene","-","Koerner","charochkina","A5793","-","-","-","2.73","Log unit","2.73","Log unit","N(=O)(=O)c1c2c(ccc(c2)N)ccc1","8","","{nr2=[8, 13]}","c(cc(ccc1)c2c1N(=O)=O)c(c2)N","nr2","25.0","?C","true","-","FGLPIWSCAOGYBA-UHFFFAOYSA"
"NC1CCCC2=CC=CC=C12","-","R945667","M28264","-","-","1-amino-1,2,3,4-tetrahydronaphthalene","-","Koerner","charochkina","A5793","-","-","-","9.63","Log unit","9.63","Log unit","NC1c2ccccc2CCC1","6","","{nr2=[6]}","c(ccc1C(C2)N)cc1CC2","nr2","25.0","?C","","-","JRZGPXSSNPTNMA-UHFFFAOYSA"
"NC1CCC2=CC=CC=C2C1","-","R945668","M27616","-","-","2-amino-1,2,3,4-tetrahydronaphthalene","-","Koerner","charochkina","A5793","-","-","-","9.93","Log unit","9.93","Log unit","NC1Cc2ccccc2CC1","6","","{nr2=[6]}","c(ccc1CC2N)cc1CC2","nr2","25.0","?C","","-","LCGFVWKNXLRFIF-UHFFFAOYSA"
"NC1=C2CCCCC2=CC=C1","-","R945669","M26503","-","-","5-Amino-1,2,3,4-tetrahydronaphthalene","-","Koerner","charochkina","A5793","-","-","-","4.47","Log unit","4.47","Log unit","Nc1c2CCCCc2ccc1","6","","{nr2=[6]}","C(CCc1c(c2)N)Cc1cc2","nr2","25.0","?C","","-","SODWJACROGQSMM-UHFFFAOYSA"
"NC1=CC=C2CCCCC2=C1","-","R945670","M70906","-","-","6-Amino-1,2,3,4-tetrahydronaphthalene","-","Koerner","charochkina","A5793","-","-","-","5.17","Log unit","5.17","Log unit","Nc1cc2CCCCc2cc1","6","","{nr2=[6]}","C(CCc1cc2N)Cc1cc2","nr2","25.0","?C","","-","MOXOFSFWYLTCFU-UHFFFAOYSA"
"CCCCN(C)C1CCC2=CC=CC=C2C1","-","R945671","M1107201","-","-","2-(N-butyl-N-methyl)amino-1,2,3,4-tetrahydronaphthalene","-","Koerner","charochkina","A5793","-","-","-","9.71","Log unit","9.71","Log unit","N(C1Cc2ccccc2CC1)(C)CCCC","6","","{nr2=[6]}","c(ccc1CC2N(C)CCCC)cc1CC2","nr2","25.0","?C","","-","QPTCTVOXKWLOJE-UHFFFAOYSA"
"NC1=CC=C(N)C2=CC=CC=C12","-","R945672","M26551","-","-","1,4-Diaminonaphthalene","-","Koerner","charochkina","A5793","-","-","-","5.57","Log unit","5.57","Log unit","Nc1c2ccccc2c(cc1)N","6","","{nr2=[6, 11]}","c(ccc1c(c2)N)cc1c(c2)N","nr2","25.0","?C","true","-","OKBVMLGZPNDWJK-UHFFFAOYSA"
"NC1=CC=CC2=CC=CC(N)=C12","-","R945673","M20716","-","-","1,8-Diaminonaphthalene","-","Koerner","charochkina","A5793","-","-","-","4.3","Log unit","4.3","Log unit","Nc1cccc2c1c(ccc2)N","3","","{nr2=[3, 7]}","c(cc(N)c1c(c2)N)cc1cc2","nr2","25.0","?C","true","-","YFOOEYJGMMJJLS-UHFFFAOYSA"
"NC1=CC(N)=C(O)C2=CC=CC=C12","-","R945674","M1107202","-","-","1,3-diamino-4-hydroxynaphthalene","-","Koerner","charochkina","A5793","-","-","-","4.7","Log unit","4.7","Log unit","Nc1c(c2ccccc2c(c1)N)O","7","","{nr2=[7, 12], oh=[5]}","c(ccc1c(O)c2N)cc1c(c2)N","nr2","25.0","?C","true","-","SGEHDRMRHWBHLE-UHFFFAOYSA"
"NC1=CC([NH3+])=C([O-])C2=CC=CC=C12","-","R945675","M1107202","-","-","1,3-diamino-4-hydroxynaphthalene","-","Koerner","charochkina","A5793","-","-","-","3.14","Log unit","3.14","Log unit","Nc1c2ccccc2c([O-])c([NH2+])c1","12","","{nr2=[12]}","c(ccc1c([O-1])c2[N+1])cc1c(c2)N","nr2","25.0","?C","","-","SGEHDRMRHWBHLE-UHFFFAOYSA"
"NC1=CC(N)=C(O)C2=CC=CC=C12","-","R945676","M1107202","-","-","1,3-diamino-4-hydroxynaphthalene","-","Koerner","charochkina","A5793","-","-","-","10.18","Log unit","10.18","Log unit","Oc1c2ccccc2c(cc1N)N","5","","{nr2=[7, 12], oh=[5]}","c(ccc1c(O)c2N)cc1c(c2)N","oh","25.0","?C","","-","SGEHDRMRHWBHLE-UHFFFAOYSA"
"CN(C)C1=CC=CC2=CC=CC=C12","-","R945677","M207","-","-","1-Dimethylaminonaphthalene","-","Koerner","charochkina","A5793","-","-","-","4.83","Log unit","4.83","Log unit","N(c1c2ccccc2ccc1)(C)C","6","","{nr2=[6]}","c(ccc1c(c2)N(C)C)cc1cc2","nr2","25.0","?C","","-","AJUXDFHPVZQOGF-UHFFFAOYSA"
"CN(C)C1=CC2=CC=CC=C2C=C1","-","R945678","M26873","-","-","2-dimethylaminonaphthalene","-","Koerner","charochkina","A5793","-","-","-","4.566","Log unit","4.566","Log unit","N(c1cc2ccccc2cc1)(C)C","6","","{nr2=[6]}","c(ccc1cc2N(C)C)cc1cc2","nr2","25.0","?C","","-","IKZPRXHVTFNIEK-UHFFFAOYSA"
"CCNC1=CC=CC2=CC=CC=C12","-","R945679","M18976","-","-","1-ethylaminonaphthalene","-","Koerner","charochkina","A5793","-","-","-","4.19","Log unit","4.19","Log unit","N(c1c2ccccc2ccc1)CC","6","","{nr2=[6]}","c(ccc1c(c2)NCC)cc1cc2","nr2","25.0","?C","","-","KDFFXYVOTKKBDI-UHFFFAOYSA"
"CNC1=CC=CC2=CC=CC=C12","-","R945680","M26491","-","-","1-Methylaminonaphthalene","-","Koerner","charochkina","A5793","-","-","-","3.67","Log unit","3.67","Log unit","N(c1c2ccccc2ccc1)C","6","","{nr2=[6]}","c(ccc1c(c2)NC)cc1cc2","nr2","25.0","?C","","-","AKEYUWUEAXIBTF-UHFFFAOYSA"
"NC1=CC=C(C=CC2=CC=C(N)C=C2)C=C1","-","R945681","M5735","-","-","4,4'-diamino-stilbene","-","Koerner","charochkina","A5793","-","-","-","4.9","Log unit","4.9","Log unit","Nc1ccc(C=Cc2ccc(cc2)N)cc1","10","","{nr2=[10, 15]}","c(cc(c1)C=Cc(ccc2N)cc2)c(c1)N","nr2","25.0","?C","true","-","KOGDFDWINXIWHI-UHFFFAOYSA"
"CN(C)C1=CC=C(C=CC2=CC=CC=C2C)C=C1","-","R945682","M714391","-","-","4-dimethylamino-2'-methylstilbene","-","Koerner","charochkina","A5793","-","-","-","4.67","Log unit","4.67","Log unit","N(c1ccc(C=Cc2ccccc2C)cc1)(C)C","10","","{nr2=[10]}","c(ccc1C=Cc(ccc2N(C)C)cc2)cc1C","nr2","25.0","?C","","-","UFLSFHMZKBRTEE-UHFFFAOYSA"
"CN1CCCCC(O)C(=O)CCCC1","-","R945683","M1107203","-","-","1-methyl-6-hydroxy-7-oxoazacycloundecane","-","Koerner","charochkina","A5793","-","-","-","9.1","Log unit","9.1","Log unit","N1(CCCCC(=O)C(O)CCCC1)C","6","","{nr2=[6], oh=[9]}","O=C(CCCCN1C)C(O)CCCC1","nr2","25.0","?C","","-","IBYNDNBMHLRVDZ-UHFFFAOYSA"
"C1CCCNCC1","-","R945684","M18772","-","-","Hexahydroazepine","-","Koerner","charochkina","A5793","-","-","-","11.07","Log unit","11.07","Log unit","N1CCCCCC1","0","","{nr2=[0]}","N(CCC1)CCC1","nr2","25.0","?C","","-","ZSIQJIWKELUFRJ-UHFFFAOYSA"
"C1CNC1","-","R945685","M20990","-","-","AZETIDINE","-","Koerner","charochkina","A5793","-","-","-","11.165","Log unit","11.165","Log unit","N1CCC1","0","","{nr2=[0]}","N(CC1)C1","nr2","25.0","?C","","-","HONIICLYMWZJFZ-UHFFFAOYSA"
"CN1CCC1","-","R945686","M1107204","-","-","N-methylazetidine","-","Koerner","charochkina","A5793","-","-","-","10.4","Log unit","10.4","Log unit","N1(CCC1)C","3","","{nr2=[3]}","C(CC1)N1C","nr2","25.0","?C","","-","WWYVZTLIFYLZFM-UHFFFAOYSA"
"C1CN1","-","R945687","M15664","-","-","aziridine  ","-","Koerner","charochkina","A5793","-","-","-","7.9","Log unit","7.9","Log unit","N1CC1","0","","{nr2=[0]}","N(C1)C1","nr2","25.0","?C","","-","NOWKCMXCCJGMRR-UHFFFAOYSA"
"CCCCN1CC1","-","R945688","M24630","-","-","N-n-butylaziridine","-","Koerner","charochkina","A5793","-","-","-","7.86","Log unit","7.86","Log unit","N1(CC1)CCCC","2","","{nr2=[2]}","C(C1)N1CCCC","nr2","25.0","?C","","-","XIEJPTDTTYFCJM-UHFFFAOYSA"
"CCC1CN1CC","-","R945689","M1107205","-","-","N,2-diethylaziridine","-","Koerner","charochkina","A5793","-","-","-","8.18","Log unit","8.18","Log unit","N1(CC1CC)CC","1","","{nr2=[1]}","C(N1CC)C1CC","nr2","25.0","?C","","-","OOCFZXAIPSMXEL-UHFFFAOYSA"
"CC1(C)CN1","-","R945690","M27245","-","-","2,2-Dimethylaziridine","-","Koerner","charochkina","A5793","-","-","-","8.625","Log unit","8.625","Log unit","N1CC1(C)C","0","","{nr2=[0]}","N(C1)C1(C)C","nr2","25.0","?C","","-","FGRJGEWVJCCOJJ-UHFFFAOYSA"
"CC1NC1C","-","R945691","M1107206","-","-","trans-2,3-dimethylaziridine","-","Koerner","charochkina","A5793","-","-","-","8.69","Log unit","8.69","Log unit","N1C(C)C1C","0","","{nr2=[0]}","N(C1C)C1C","nr2","25.0","?C","","-","DNPSMEGHIHDFAJ-UHFFFAOYSA"
"CCN1CC1","-","R945692","M1107207","-","-","N-ethylaziridine","-","Koerner","charochkina","A5793","-","-","-","7.93","Log unit","7.93","Log unit","N1(CC1)CC","2","","{nr2=[2]}","C(C1)N1CC","nr2","25.0","?C","","-","UJGVUACWGCQEAO-UHFFFAOYSA"
"CCC1CN1","-","R945693","M27077","-","-","2-ETHYLAZIRIDINE","-","Koerner","charochkina","A5793","-","-","-","8.3","Log unit","8.3","Log unit","N1CC1CC","0","","{nr2=[0]}","N(C1)C1CC","nr2","25.0","?C","","-","CSWPOLMVXVBCSV-UHFFFAOYSA"
"CN1CC1","-","R945694","M24452","-","-","N-Methylaziridine","-","Koerner","charochkina","A5793","-","-","-","7.86","Log unit","7.86","Log unit","N1(CC1)C","2","","{nr2=[2]}","C(C1)N1C","nr2","25.0","?C","","-","XLJQPXVBQNJNLW-UHFFFAOYSA"
"CC(C=C(C1=CC=CS1)C1=CC=CS1)N1CCCC(=O)CCC1","-","R945695","M1107208","-","-","octahydro-1-(1-methyl-3,3-dithienyl)prop-2-enylazocine","-","Koerner","charochkina","A5793","-","-","-","7.47","Log unit","7.47","Log unit","N1(C(C=C(c2sccc2)c2sccc2)C)CCCC(=O)CCC1","13","","{nr2=[13]}","S(C=C1)C(=C1)C(C(SC=2)=CC2)=CC(N(CCCC3=O)CCC3)C","nr2","25.0","?C","","-","LJAAWTUJRNRGKV-UHFFFAOYSA"
"CN1CCCC(=O)CCC1","-","R945696","M1107209","-","-","octahydro-1-methyl-5-oxoazocine","-","Koerner","charochkina","A5793","-","-","-","8.75","Log unit","8.75","Log unit","N1(CCCC(=O)CCC1)C","5","","{nr2=[5]}","O=C(CCCN1C)CCC1","nr2","25.0","?C","","-","HXKFJDKQJXBMEY-UHFFFAOYSA"
"CCN1CCCC(O)C(=O)CCC1","-","R945697","M1107210","-","-","1-ethyl-octahydro-5-hydroxy-6-oxoazonine","-","Koerner","charochkina","A5793","-","-","-","9.2","Log unit","9.2","Log unit","N1(CCCC(=O)C(O)CCC1)CC","5","","{nr2=[5], oh=[9]}","O=C(CCCN1CC)C(O)CCC1","nr2","25.0","?C","","-","GRSYFBGTYVNRBI-UHFFFAOYSA"
"CN1CCCC(O)C(=O)CCC1","-","R945698","M1107211","-","-","octahydro-5-hydroxyl-1-methyl-6-oxoazonine","-","Koerner","charochkina","A5793","-","-","-","9.2","Log unit","9.2","Log unit","N1(CCCC(=O)C(O)CCC1)C","5","","{nr2=[5], oh=[8]}","O=C(CCCN1C)C(O)CCC1","nr2","25.0","?C","","-","KABVSBFWRFPCOW-UHFFFAOYSA"
"[NH3+]CCNCC1=CC=CO1","-","R945699","M1107212","-","-","2-(2-aminoethylaminomethyl)furan","-","Koerner","charochkina","A5793","-","-","-","6.56","Log unit","6.56","Log unit","N(Cc1occc1)CC[NH3+]","6","","{nr2=[6]}","O(C=C1)C(=C1)CNCC[N+1]","nr2","25.0","?C","","-","SDYAGGMEBLMHCR-UHFFFAOYSA"
"NCC1=CC=CO1","-","R945700","M22572","-","-","2-AMINOMETHYLFURAN","-","Koerner","charochkina","A5793","-","-","-","8.89","Log unit","8.89","Log unit","NCc1occc1","6","","{nr2=[6]}","O(C=C1)C(=C1)CN","nr2","25.0","?C","","-","DDRPCXLAQZKBJP-UHFFFAOYSA"
"C1CCNCC1","-","R945701","M7529","-","-","piperidine","-","Koerner","charochkina","A5793","-","-","-","11.115","Log unit","11.115","Log unit","N1CCCCC1","0","","{nr2=[0]}","N(CCC1)CC1","nr2","25.0","?C","","-","NQRYJNQNLNOLGT-UHFFFAOYSA"
"CC(=O)C(CN1CCCCC1)C1=CC=CC=C1","-","R945702","M1107213","-","-","N-(2-acetyl-2-phenyl)ethylpiperidine","-","Koerner","charochkina","A5793","-","-","-","8.8","Log unit","8.8","Log unit","N1(CC(c2ccccc2)C(=O)C)CCCCC1","9","","{nr2=[9]}","c(ccc1C(C(=O)C)CN(CCC2)CC2)cc1","nr2","25.0","?C","","-","WMFDICGVNANCMC-UHFFFAOYSA"
"C=CCN1CCCCC1","-","R945703","M124413","-","-","1-ALLYLPIPERIDINE","-","Koerner","charochkina","A5793","-","-","-","9.639999","Log unit","9.639999","Log unit","N1(CCCCC1)CC=C","4","","{nr2=[4]}","C(CCC1)N(C1)CC=C","nr2","25.0","?C","","-","KYGMSGYKSGNPHM-UHFFFAOYSA"
"NCCN1CCCCC1","-","R945704","M83027","-","-","1-(2-Aminoethyl)piperidine","-","Koerner","charochkina","A5793","-","-","-","9.675","Log unit","9.675","Log unit","N1(CCCCC1)CCN","4","","{nr2=[4, 8]}","C(CCC1)N(C1)CCN","nr2","25.0","?C","true","-","CJNRGSHEMCMUOE-UHFFFAOYSA"