Smiles,CASRN,Record ID,Molecule ID,External ID,N,Name,Introducer,Modifer,Article ID,PUBMED ID,PAGE,TABLE,pKa,pKa Unit,Temperature,Temperature Unit,Ionizable center smiles,IC group
O[C@@H](CC(O)=O)C(O)=O,-,R1321944,M65220,-,127,malic acid,Koerner,charochkina,A4065,19961204,-,-,3.459,Log unit,,-,OC(=O)C(CC(=O)O)O,
O[C@@H](CC(O)=O)C(O)=O,-,R1321945,M65220,-,127,malic acid,Koerner,charochkina,A4065,19961204,-,-,5.097,Log unit,,-,OC(=O)CC(C(=O)O)O,
OC(=O)\C=C/C([O-])=O,-,R1321946,M15239,-,128,maleic acid,Koerner,charochkina,A4065,19961204,-,-,1.93,Log unit,,-,OC(=O)C=CC(=O)O,
OC(=O)\C=C/C([O-])=O,-,R1321947,M15239,-,128,maleic acid,Koerner,charochkina,A4065,19961204,-,-,6.225,Log unit,,-,OC(=O)C=CC(=O)O,
C[C@H](CCC1=CC=CC=C1)NC[C@@H](O)C1=CC(C(N)=O)=C(O)C=C1,-,R1321948,M10352,-,129,Labetalol,Koerner,charochkina,A4065,19961204,-,-,7.41,Log unit,,-,Oc1ccc(cc1C(=O)N)C(CNC(CCc1ccccc1)C)O,
C[C@H](CCC1=CC=CC=C1)NC[C@@H](O)C1=CC(C(N)=O)=C(O)C=C1,-,R1321949,M10352,-,129,Labetalol,Koerner,charochkina,A4065,19961204,-,-,9.36,Log unit,,-,N(CC(c1ccc(c(c1)C(=O)N)O)O)C(CCc1ccccc1)C,
[O-]C(=O)CC([O-])=O,-,R1321950,M7880,-,130,malonic acid,Koerner,charochkina,A4065,19961204,-,-,2.85,Log unit,,-,OC(=O)CC(=O)O,
[O-]C(=O)CC([O-])=O,-,R1321951,M7880,-,130,malonic acid,Koerner,charochkina,A4065,19961204,-,-,5.66,Log unit,,-,OC(=O)CC(=O)O,
CN[C@@H](C)CC1=CC=CC=C1OC,-,R1321952,M659581,-,666,Methoxyphenamine,Koerner,charochkina,A4065,19961204,4,6,10.45,Log unit,,-,N(C(Cc1c(cccc1)OC)C)C,
[H][C@@]12OC3=C(O)C=CC4=C3[C@@]11CCN(C)[C@]([H])(C4)[C@]1([H])C=C[C@@H]2O,-,R1321953,M965,-,143,Morphine,Koerner,charochkina,A4065,19961204,-,-,8.18,Log unit,,-,N1(C2C3C=CC(C4C3(c3c(c(ccc3C2)O)O4)CC1)O)C,
[H][C@@]12OC3=C(O)C=CC4=C3[C@@]11CCN(C)[C@]([H])(C4)[C@]1([H])C=C[C@@H]2O,-,R1321954,M965,-,143,Morphine,Koerner,charochkina,A4065,19961204,-,,9.4,Log unit,,-,Oc1c2c3c(cc1)CC1C4C3(C(O2)C(C=C4)O)CCN1C,
[H][C@@]12OC3=C(O)C=CC4=C3[C@@]11CCN[C@]([H])(C4)[C@]1([H])C=C[C@@H]2O,-,R1321955,M8089,-,144,Normorphine,Koerner,charochkina,A4065,19961204,-,-,8.66,Log unit,,-,N1C2C3C=CC(C4C3(c3c(c(ccc3C2)O)O4)CC1)O,
[H][C@@]12OC3=C(O)C=CC4=C3[C@@]11CCN[C@]([H])(C4)[C@]1([H])C=C[C@@H]2O,-,R1321956,M8089,-,144,Normorphine,Koerner,charochkina,A4065,19961204,-,,9.8,Log unit,,-,Oc1c2c3c(cc1)CC1C4C3(C(O2)C(C=C4)O)CCN1,
CN1CC[C@]23[C@H]4OC5=C(O[C@@H]6O[C@@H]([C@@H](O)[C@@H](O)[C@H]6O)C(O)=O)C=CC(C[C@@H]1[C@@H]2C=C[C@@H]4O)=C35,-,R1321957,M663930,-,146,Morphine-3-glucuronide,Koerner,charochkina,A4065,19961204,-,-,2.87,Log unit,,-,OC(=O)C1OC(C(C(C1O)O)O)Oc1c2c3c(cc1)CC1C4C=CC(C(O2)C34CCN1C)O,
CN1CC[C@]23[C@H]4OC5=C(O[C@@H]6O[C@@H]([C@@H](O)[C@@H](O)[C@H]6O)C(O)=O)C=CC(C[C@@H]1[C@@H]2C=C[C@@H]4O)=C35,-,R1321958,M663930,-,146,Morphine-3-glucuronide,Koerner,charochkina,A4065,19961204,-,-,8.21,Log unit,,-,N1(C2C3C=CC(C4Oc5c(OC6C(C(C(C(O6)C(=O)O)O)O)O)ccc(C2)c5C34CC1)O)C,
CN1CC[C@]23[C@H]4OC5=C(O)C=CC(C[C@@H]1[C@@H]2C=C[C@@H]4O[C@H]1O[C@@H]([C@H](O)[C@H](O)[C@H]1O)C(O)=O)=C35,-,R1321959,M663931,-,147,Morphine-6-glucuronide,Koerner,charochkina,A4065,19961204,-,-,2.89,Log unit,,-,OC(=O)C1OC(C(C(C1O)O)O)OC1C2C34c5c(c(O)ccc5CC(C3C=C1)N(CC4)C)O2,
CN1CC[C@]23[C@H]4OC5=C(O)C=CC(C[C@@H]1[C@@H]2C=C[C@@H]4O[C@H]1O[C@@H]([C@H](O)[C@H](O)[C@H]1O)C(O)=O)=C35,-,R1321960,M663931,-,147,Morphine-6-glucuronide,Koerner,charochkina,A4065,19961204,-,-,8.14,Log unit,,-,N1(C2C3C=CC(OC4OC(C(O)C(O)C4O)C(=O)O)C4C3(c3c(c(O)ccc3C2)O4)CC1)C,
CN1CC[C@]23[C@H]4OC5=C(O)C=CC(C[C@@H]1[C@@H]2C=C[C@@H]4O[C@H]1O[C@@H]([C@H](O)[C@H](O)[C@H]1O)C(O)=O)=C35,-,R1321961,M663931,-,147,Morphine-6-glucuronide,Koerner,charochkina,A4065,19961204,-,-,9.36,Log unit,,-,N1(C2C3C=CC(OC4OC(C(O)C(O)C4O)C(=O)O)C4C3(c3c(c(O)ccc3C2)O4)CC1)C,
OC(=O)C1=CC=CN=C1,-,R1321962,M8847,-,148,nicotinic acid,Koerner,charochkina,A4065,19961204,-,-,2.05,Log unit,,-,OC(=O)c1cnccc1,
OC(=O)C1=CC=CN=C1,-,R1321963,M8847,-,148,nicotinic acid,Koerner,charochkina,A4065,19961204,-,-,4.83,Log unit,,-,n1cccc(c1)C(=O)O,
OC(=O)C1=CC=NC=C1,-,R1321964,M17077,-,149,iso-Nicotinic acid,Koerner,charochkina,A4065,19961204,-,-,1.77,Log unit,,-,n1ccc(cc1)C(=O)O,
OC(=O)C1=CC=NC=C1,-,R1321965,M17077,-,149,iso-Nicotinic acid,Koerner,charochkina,A4065,19961204,-,-,4.87,Log unit,,-,OC(=O)c1ccncc1,
[O-][N+](=O)C1=CC=C2NC(=O)CN=C(C3=CC=CC=C3)C2=C1,-,R1321966,M5620,-,151,Nitrazepam,Koerner,charochkina,A4065,19961204,-,-,2.92,Log unit,,-,N1=C(c2cc(ccc2NC(=O)C1)[N+](=O)[O-])c1ccccc1,
[O-][N+](=O)C1=CC=C2NC(=O)CN=C(C3=CC=CC=C3)C2=C1,-,R1321967,M5620,-,151,Nitrazepam,Koerner,charochkina,A4065,19961204,-,-,10.525,Log unit,,-,N1c2ccc(cc2C(=NCC1=O)c1ccccc1)[N+](=O)[O-],
OC[C@H]1O[C@H](C[C@H]1O)N1C=NC2=C1N=CNC[C@H]2O,-,R1321968,M659573,-,156,Pentostatin,Koerner,charochkina,A4065,19961204,-,,1.67,Log unit,,-,n1cn(C2CC(C(O2)CO)O)c2c1C(CNC=N2)O,
OC[C@H]1O[C@H](C[C@H]1O)N1C=NC2=C1N=CNC[C@H]2O,-,R1321969,M659573,-,156,Pentostatin,Koerner,charochkina,A4065,19961204,-,,5.5,Log unit,,-,N1=CNCC(O)c2ncn(C3OC(CO)C(O)C3)c21,
CNC[C@@H](C)C1=CC=CC=C1,-,R1321970,M659582,-,666,Phenylpropylmethylamine,Koerner,charochkina,A4065,19961204,4,6,10.07,Log unit,,-,N(CC(c1ccccc1)C)C,
O[C@@H](CNC1=NC=CC=C1)C1=CC=CC=C1,-,R1321971,M659583,-,666,Phenyramidol,Koerner,charochkina,A4065,19961204,4,6,6.488,Log unit,,-,n1ccccc1NCC(c1ccccc1)O,
OC(=O)C1=C(C=CC=C1)C(O)=O,-,R1321972,M13075,-,160,phthalic acid,Koerner,charochkina,A4065,19961204,-,-,2.95,Log unit,,-,OC(=O)c1c(cccc1)C(=O)O,
OC(=O)C1=C(C=CC=C1)C(O)=O,-,R1321973,M13075,-,160,phthalic acid,Koerner,charochkina,A4065,19961204,-,-,5.408,Log unit,,-,OC(=O)c1ccccc1C(=O)O,
OC(=O)C1=CC=CC=N1,-,R1321974,M10393,-,162,Picolinic Acid,Koerner,charochkina,A4065,19961204,-,-,0.99,Log unit,,-,OC(=O)c1ncccc1,
OC(=O)C1=CC=CC=N1,-,R1321975,M10393,-,162,Picolinic Acid,Koerner,charochkina,A4065,19961204,-,-,5.39,Log unit,,-,n1ccccc1C(=O)O,
CCNC(=N)NC(=N)NC1=CC=C(Cl)C=C1,-,R1321776,M41242,-,71,N1-p-Chlorophenyl-N5-alkylbigu,Koerner,charochkina,A4065,19961204,-,-,11.01,Log unit,,-,N=C(NC(=N)Nc1ccc(cc1)Cl)NCC,
CCCNC(=N)NC(=N)NC1=CC=C(Cl)C=C1,-,R1321777,M39624,-,72,N1-p-Chlorophenyl-N5-alkylbigu,Koerner,charochkina,A4065,19961204,-,-,11.02,Log unit,,-,N=C(NC(=N)Nc1ccc(cc1)Cl)NCCC,
CCCCNC(=N)NC(=N)NC1=CC=C(Cl)C=C1,-,R1321778,M659530,-,73,N1-p-Chlorophenyl-N5-alkylbigu,Koerner,charochkina,A4065,19961204,-,-,10.83,Log unit,,-,N=C(NC(=N)Nc1ccc(cc1)Cl)NCCCC,
OC(=O)\C=C\C1=CC=CC=C1,-,R1321779,M12147,-,77,cinnamic acid,Koerner,charochkina,A4065,19961204,-,-,4.45,Log unit,,-,OC(=O)C=Cc1ccccc1,
NS(=O)(=O)C1=C(Cl)C=CC(=C1)C1(O)NC(=O)C2=CC=CC=C12,-,R1321780,M5045,-,78,Chlorthalidone,Koerner,charochkina,A4065,19961204,4,7,9.355,Log unit,,-,NS(=O)(=O)c1cc(C2(NC(=O)c3c2cccc3)O)ccc1Cl,
[H]O[C@@]1([H])[C@]([H])(O[C@]([H])(C([H])(N([H])C(=O)[C@@]2([H])N(C([H])([H])[H])C([H])([H])[C@]([H])(C([H])([H])C([H])([H])C([H])([H])[H])C2([H])[H])C([H])(Cl)C([H])([H])[H])[C@]([H])(O[H])[C@]1([H])O[H])SC([H])([H])[H],-,R1321781,M5484,-,80,Clindamycin,Koerner,charochkina,A4065,19961204,4,7,7.72,Log unit,,-,N1(C(C(=O)NC(C2OC(SC)C(C(C2O)O)O)C(Cl)C)CC(CCC)C1)C,
OC1=C(I)C=C(Cl)C2=C1N=CC=C2,-,R1321782,M19346,-,81,clioquinol,Koerner,charochkina,A4065,19961204,-,-,8.16,Log unit,,-,Oc1c2c(c(cc1I)Cl)cccn2,
ClC1=CC=CC(Cl)=C1N=C1NCCN1,-,R1321783,M3272,-,82,Clonidine,Koerner,charochkina,A4065,19961204,-,-,8.12,Log unit,,-,N(=C1NCCN1)c1c(Cl)cccc1Cl,
CN1CCCC(C1)C(O)=O,-,R1321784,M659531,-,83,Dihydroarecaidine,Koerner,charochkina,A4065,19961204,4,7,9.7,Log unit,,-,N1(CC(C(=O)O)CCC1)C,
COC(=O)C1CCCN(C)C1,-,R1321785,M659532,-,84,Dihydroarecaidine methyl ester,Koerner,charochkina,A4065,19961204,4,7,8.39,Log unit,,-,N1(CC(C(=O)OC)CCC1)C,
COC1=C2OC3C(O)C=C[C@H]4[C@H]5CC(C=C1)=C2[C@@]34CCN5C,-,R1321786,M50289,-,86,Codeine,Koerner,charochkina,A4065,19961204,4,7,8.22,Log unit,,-,N1(CCC23c4c5c(OC)ccc4CC1C2C=CC(C3O5)O)C,
COC1=C2O[C@H]3[C@@H](O)C=CC4[C@H]5CC(C=C1)=C2[C@@]34CCN5,-,R1321787,M473752,-,87,Norcodeine,Koerner,charochkina,A4065,19961204,4,7,9.23,Log unit,,-,N1C2C3C4(C(C(C=C3)O)Oc3c4c(C2)ccc3OC)CC1,
COC1=C2O[C@H]3[C@@H](O)C=CC4[C@H]5CC(C=C1)=C2[C@@]34CCN5CCC#N,-,R1321788,M659533,-,88,"Norcodeine, N-(2-cyano)ethyl",Koerner,charochkina,A4065,19961204,4,7,5.68,Log unit,,-,N1(C2C3C4(c5c(C2)ccc(OC)c5OC4C(C=C3)O)CC1)CCC#N,
CC(=O)OC(CC(O)=O)C[N+](C)(C)C,-,R1321789,M659534,-,89,Deccyl carnitine,Koerner,charochkina,A4065,19961204,-,-,3.6,Log unit,,-,OC(=O)CC(OC(=O)C)C[N+](C)(C)C,
CCCC(=O)OC(CC(O)=O)C[N+](C)(C)C,-,R1321790,M659535,-,90,Deccyl carnitine,Koerner,charochkina,A4065,19961204,-,-,3.56,Log unit,,-,OC(=O)CC(OC(=O)CCC)C[N+](C)(C)C,
CCCCCCCC(=O)OC(CC(O)=O)C[N+](C)(C)C,-,R1321791,M659536,-,91,Deccyl carnitine,Koerner,charochkina,A4065,19961204,-,-,3.6,Log unit,,-,OC(=O)CC(OC(=O)CCCCCCC)C[N+](C)(C)C,
CCCCCCCCCC(=O)OC(CC(O)=O)C[N+](C)(C)C,-,R1321792,M659537,-,92,Deccyl carnitine,Koerner,charochkina,A4065,19961204,4,7,3.65,Log unit,,-,OC(=O)CC(OC(=O)CCCCCCCCC)C[N+](C)(C)C,
OC(=O)CC1=CC=CC=C1NC1=C(Cl)C=CC=C1Cl,-,R1321793,M1847,-,94,Diclofenac,Koerner,charochkina,A4065,19961204,-,-,3.99,Log unit,,-,OC(=O)Cc1c(Nc2c(Cl)cccc2Cl)cccc1,
[H]O[C@@]1([H])C([H])([H])C([H])([H])[C@@]2([H])[C@]3([H])N(C([H])([H])[H])C([H])([H])C([H])([H])[C@@]22C4=C(C([H])=C([H])C(OC([H])([H])[H])=C4O[C@@]12[H])C3([H])[H],-,R1321794,M9600,-,95,Dihydrocodeine,Koerner,charochkina,A4065,19961204,-,-,8.75,Log unit,,-,N1(C2C3C4(c5c(c(ccc5C2)OC)OC4C(O)CC3)CC1)C,
CN1CC[C@]23[C@H]4OC5=C(O)C=CC(C[C@@H]1[C@@H]2CC[C@@H]4O)=C35,-,R1321795,M56059,-,96,Dihydromorphine,Koerner,charochkina,A4065,19961204,-,-,9.35,Log unit,,-,N1(C2C3C4(c5c(c(ccc5C2)O)OC4C(O)CC3)CC1)C,
C[C@]12CC[C@H]3C(=CCC4=CC(O)=CC=C34)[C@@H]1CC[C@H]2O,-,R1321796,M659538,-,97,17a-Dihydroequilin,Koerner,charochkina,A4065,19961204,-,-,10.29,Log unit,,-,Oc1ccc2C3C(=CCc2c1)C1C(C(O)CC1)(C)CC3,
C[C@]12CC[C@H]3C(=CCC4=CC(O)=CC=C34)[C@@H]1CC[C@@H]2O,-,R1321797,M217729,-,98,17b-Dihydroequilin,Koerner,charochkina,A4065,19961204,-,-,9.77,Log unit,,-,Oc1ccc2C3C(=CCc2c1)C1C(C(O)CC1)(C)CC3,
CCCCCCCC\C=C\CCCCCCCC(=O)OCC(COP(O)(=O)OCCN)OC(=O)CCCCCCC\C=C\CCCCCCCC,-,R1321798,M659539,-,99,"1,2-Dioleoylphosphatidylethanolamine",Koerner,charochkina,A4065,19961204,-,-,7.55,Log unit,,-,NCCOP(=O)(OCC(OC(=O)CCCCCCCC=CCCCCCCCC)COC(=O)CCCCCCCC=CCCCCCCCC)O,
CCOC(=O)C1=C(O)C2=C(OC(\C=N\N3CC(CN4CCOCC4)OC3=O)=C2)N=C1,-,R1321799,M659542,-,102,ebifuramin,Koerner,charochkina,A4065,19961204,4,7,5.24,Log unit,,-,Oc1c(C(=O)OCC)cnc2oc(C=NN3C(=O)OC(CN4CCOCC4)C3)cc21,
[H]O[C@]([H])(C1=C([H])C([H])=C([H])C([H])=C1[H])[C@@]([H])(N([H])C([H])([H])[H])C([H])([H])[H],-,R1321800,M5923,-,105,Ephedrine,Koerner,charochkina,A4065,19961204,-,-,9.61,Log unit,,-,N(C(C(c1ccccc1)O)C)C,
[H][C@@]12CC[C@H](O)[C@@]1(C)CC[C@]1([H])C3=C(CC[C@@]21[H])C=C(O)C=C3,-,R1321801,M11865,-,106,"Estradiol, 17b",Koerner,charochkina,A4065,19961204,-,-,10.71,Log unit,,-,Oc1cc2c(C3C(C4C(CC3)(C(CC4)O)C)CC2)cc1,
[H][C@@]12CCC(=O)[C@@]1(C)CC[C@]1([H])C3=C(CC[C@@]21[H])C=C(O)C=C3,-,R1321802,M2127,-,107,estrone,Koerner,charochkina,A4065,19961204,-,-,10.34,Log unit,,-,Oc1cc2c(C3C(C4C(C(=O)CC4)(CC3)C)CC2)cc1,
[H][C@@]12CC[C@@](O)(C#C)[C@@]1(C)CC[C@]1([H])C3=C(CC[C@@]21[H])C=C(O)C=C3,-,R1321803,M728,-,108,ethinyl estradiol,Koerner,charochkina,A4065,19961204,-,-,10.4,Log unit,,-,Oc1ccc2C3C(C4C(C(C#C)(CC4)O)(CC3)C)CCc2c1,
CC1CCC2=CC(F)=CC3=C2N1C=C(C(O)=O)C3=O,-,R1321804,M2174,-,109,Flumequine,Koerner,charochkina,A4065,19961204,4,7,6.38,Log unit,,-,OC(=O)c1cn2c3c(cc(cc3c1=O)F)CCC2C,
OC(=O)C1=CC(O)=C(O)C(O)=C1,-,R1321805,M6312,-,111,gallic acid,Koerner,charochkina,A4065,19961204,-,-,4.21,Log unit,,-,OC(=O)c1cc(c(c(c1)O)O)O,
OCC(O)C(O)C(O)C(O)C(O)=O,-,R1321806,M19408,-,112,Gluconic acid,Koerner,charochkina,A4065,19961204,4,7,3.62,Log unit,,-,OC(=O)C(O)C(O)C(O)C(O)CO,
C[C@H]1CCN2CCC[C@@H]12,-,R1321807,M659546,-,114,Heliotridane,Koerner,charochkina,A4065,19961204,-,-,11.4,Log unit,,-,N12C(C(C)CC1)CCC2,
CC1=CCN2CCC[C@@H]12,-,R1321808,M659547,-,115,Heliotridene,Koerner,charochkina,A4065,19961204,-,-,10.55,Log unit,,-,N12C(C(=CC1)C)CCC2,
OCCOCCN1CCN(CC1)[C@H](C1=CC=CC=C1)C1=CC=C(Cl)C=C1,-,R1321809,M14311,-,120,Hydroxyzine,Koerner,charochkina,A4065,19961204,-,-,1.975,Log unit,,-,N1(C(c2ccc(Cl)cc2)c2ccccc2)CCN(CC1)CCOCCO,
CC(C)CC1=CC=C(C=C1)C(C)C(O)=O,-,R1321810,M3742,-,122,Ibuprofen,Koerner,charochkina,A4065,19961204,-,-,4.44,Log unit,,-,OC(=O)C(C)c1ccc(cc1)CC(C)C,
C[C@@H](O)C(O)=O,-,R1321811,M80225,-,124,"Latic acid, D(-)",Koerner,charochkina,A4065,19961204,-,-,3.861,Log unit,,-,OC(=O)C(C)O,
C[C@H](O)C(O)=O,-,R1321812,M64877,-,125,"Latic acid, D(+)",Koerner,charochkina,A4065,19961204,-,-,3.861,Log unit,,-,OC(=O)C(C)O,
CCN(CC)CC(=O)NC1=C(C)C=CC=C1C,-,R1321813,M7455,-,126,lidocaine,Koerner,charochkina,A4065,19961204,-,-,7.928,Log unit,,-,N(CC(=O)Nc1c(cccc1C)C)(CC)CC,
CNC(C)(C)CC1=CC=CC=C1,-,R1321814,M10133,-,131,mephentermine,Koerner,charochkina,A4065,19961204,-,-,10.37,Log unit,,-,N(C(Cc1ccccc1)(C)C)C,
[H]N(C([H])([H])[H])[C@@]([H])(C([H])([H])[H])C([H])([H])C1=C([H])C([H])=C([H])C([H])=C1[H],-,R1321815,M7126,-,132,methamphetamine,Koerner,charochkina,A4065,19961204,-,-,9.99,Log unit,,-,N(C(Cc1ccccc1)C)C,
CN[C@@H](C)CC1=CC=C(O)C=C1,-,R1321816,M659550,-,133,"Methaphetamine, 4-hydroxy",Koerner,charochkina,A4065,19961204,-,,9.62,Log unit,,-,N(C)C(C)Cc1ccc(O)cc1,
S=C1NC=NC2=C1NC=N2,-,R1321817,M3321,-,134,6-Mercaptopurine,Koerner,charochkina,A4065,19961204,-,-,7.77,Log unit,,-,Sc1c2c(ncn1)nc[nH]2,
COC1=CC=C(OC)C(=C1)[C@H](O)[C@@H](C)N,-,R1321818,M659551,-,135,METHOXAMINE,Koerner,charochkina,A4065,19961204,-,-,9.32,Log unit,,-,NC(C(O)c1c(OC)ccc(OC)c1)C,
CNC(C)CC1=CC=CC=C1OC,-,R1321819,M15378,-,136,Methoxyphenamine,Koerner,charochkina,A4065,19961204,4,7,10.45,Log unit,,-,N(C(Cc1c(cccc1)OC)C)C,
CN1CCC[C@H]1C1=CN=CC=C1,-,R1321820,M10502,-,137,Nicotine,Koerner,charochkina,A4065,19961204,-,-,3.13,Log unit,,-,n1cccc(c1)C1CCCN1C,
C[C@](N)(CC1=CC(O)=C(O)C=C1)C(O)=O,-,R1321821,M51128,-,138,L-a-Methyldopa,Koerner,charochkina,A4065,19961204,-,-,2.218,Log unit,,-,OC(=O)C(Cc1cc(O)c(cc1)O)(C)N,
CC[C@@H](CO)NC(=O)[C@H]1CN(C)[C@@H]2CC3=CNC4=CC=CC(=C34)C2=C1,-,R1321822,M52762,-,139,Methylergonovine,Koerner,charochkina,A4065,19961204,-,-,6.65,Log unit,,-,N1(C2Cc3c[nH]c4cccc(C2=CC(C1)C(=O)NC(CC)CO)c34)C,
CC[C@@H](CO)NC(=O)[C@H]1CN(C)[C@@H]2CC3=CN(C)C4=CC=CC(=C34)C2=C1,-,R1321823,M5759,-,140,Methysergide,Koerner,charochkina,A4065,19961204,-,-,6.62,Log unit,,-,N1(C2Cc3cn(c4cccc(C2=CC(C1)C(=O)NC(CC)CO)c34)C)C,
COCCC1=CC=C(OC[C@H](O)CNC(C)C)C=C1,-,R1321824,M4678,-,141,metoprolol,Koerner,charochkina,A4065,19961204,-,-,9.555,Log unit,,-,N(CC(COc1ccc(cc1)CCOC)O)C(C)C,
C[C@@H](N)COC1=C(C)C=CC=C1C,-,R1321825,M243708,-,142,Mexiletine,Koerner,charochkina,A4065,19961204,-,-,9.14,Log unit,,-,NC(COc1c(C)cccc1C)C,
OC(=O)C1=CC=CN=C1NC1=CC=CC(=C1)C(F)(F)F,-,R1321826,M5394,-,145,Niflumic acid,Koerner,charochkina,A4065,19961204,-,-,4.44,Log unit,,-,n1c(Nc2cc(ccc2)C(F)(F)F)c(ccc1)C(=O)O,
CS(=O)(=O)NC1=CC=C(C=C1OC1=CC=CC=C1)N(=O)=O,-,R1321827,M39928,-,150,nimesulide,Koerner,charochkina,A4065,19961204,-,-,6.51,Log unit,,-,N(c1c(Oc2ccccc2)cc(cc1)[N+](=O)[O-])S(=O)(=O)C,
C[C@@H](N)[C@@H](O)C1=CC=CC=C1,-,R1321828,M57724,-,152,Norephedrine,Koerner,charochkina,A4065,19961204,-,-,9.05,Log unit,,-,NC(C(c1ccccc1)O)C,
[H]O[C@@]([H])(C1=C([H])C([H])=C([H])C([H])=C1[H])[C@@]([H])(N([H])[H])C([H])([H])[H],-,R1321829,M2062,-,153,Norpseudoephedrine,Koerner,charochkina,A4065,19961204,-,-,9.19,Log unit,,-,NC(C(c1ccccc1)O)C,
COC1=CC=C(CC2=NC=CC3=CC(OC)=C(OC)C=C23)C=C1OC,-,R1321830,M13169,-,154,Papaverine,Koerner,charochkina,A4065,19961204,-,-,6.43,Log unit,,-,n1c(c2c(cc(OC)c(OC)c2)cc1)Cc1ccc(c(c1)OC)OC,
CC(C)(S)[C@@H](N)C(O)=O,-,R1321831,M12021,-,155,Penicillamine,Koerner,charochkina,A4065,19961204,-,-,7.83,Log unit,,-,NC(C(C)(C)S)C(=O)O,
CCCCC1C(=O)N(N(C1=O)C1=CC=CC=C1)C1=CC=CC=C1,-,R1321832,M12071,-,157,Phenylbutazone,Koerner,charochkina,A4065,19961204,-,-,4.53,Log unit,,-,C1(C(=O)N(N(c2ccccc2)C1=O)c1ccccc1)CCCC,
CNCC(C)C1=CC=CC=C1,-,R1321833,M18084,-,158,Phenylpropylmethylamine,Koerner,charochkina,A4065,19961204,4,7,10.07,Log unit,,-,N(CC(c1ccccc1)C)C,
OC(CNC1=CC=CC=N1)C1=CC=CC=C1,-,R1321834,M21652,-,159,Phenyramidol,Koerner,charochkina,A4065,19961204,4,7,6.488,Log unit,,-,n1c(cccc1)NCC(c1ccccc1)O,
[H][C@]12N(C)CC[C@@]1(C)C1=CC(OC(=O)NC)=CC=C1N2C,-,R1321835,M8588,-,161,physostigmine,Koerner,charochkina,A4065,19961204,-,-,8.17,Log unit,,-,N1(CCC2(c3cc(OC(=O)NC)ccc3N(C12)C)C)C,
CC[C@H]1[C@@H](CC2=CN=CN2C)COC1=O,-,R1321836,M9015,-,163,Pilocarpine,Koerner,charochkina,A4065,19961204,-,-,7.03,Log unit,,-,n1cn(c(CC2COC(=O)C2CC)c1)C,
C1CCNCC1,-,R1321837,M7529,-,165,piperidine,Koerner,charochkina,A4065,19961204,-,-,11.123,Log unit,,-,N1CCCCC1,
CN1C(C(=O)NC2=CC=CC=N2)=C(O)C2=C(C=CC=C2)S1(=O)=O,-,R1321838,M9535,-,166,Piroxicam,Koerner,charochkina,A4065,19961204,-,-,5.07,Log unit,,-,OC1=C(N(S(=O)(=O)c2c1cccc2)C)C(=O)Nc1ccccn1,
CC(C)NC[C@H](O)COC1=C2C=CC=CC2=CC=C1,-,R1321839,M382,-,168,Propranolol,Koerner,charochkina,A4065,19961204,-,-,9.5,Log unit,,-,N(CC(COc1cccc2c1cccc2)O)C(C)C,
CN1[C@H]2CC[C@@H]1[C@@H]([C@@H](O)C2)C(O)=O,-,R1321840,M659555,-,169,Pseudoecgonine,Koerner,charochkina,A4065,19961204,-,-,9.7,Log unit,,-,N1(C2C(C(CC1CC2)O)C(=O)O)C,
COC(=O)[C@H]1[C@H]2CC[C@@H](C[C@@H]1O)N2C,-,R1321841,M659556,-,170,"Pseudoecgonine, methyl ester",Koerner,charochkina,A4065,19961204,-,-,8.15,Log unit,,-,N1(C2C(C(O)CC1CC2)C(=O)OC)C,
CN1[C@H]2CC[C@@H]1C[C@@H](O)C2,-,R1321842,M659557,-,171,Pseudotropine,Koerner,charochkina,A4065,19961204,-,-,10.06,Log unit,,-,N1(C2CCC1CC(C2)O)C,
CN1[C@H]2CC[C@@H]1C[C@H](O)C2,-,R1321843,M659558,-,172,TROPINE,Koerner,charochkina,A4065,19961204,-,-,10.33,Log unit,,-,N1(C2CCC1CC(C2)O)C,
CN[C@H](C)[C@@H](O)C1=CC=CC=C1,-,R1321844,M5925,-,173,Pseudoephedrine,Koerner,charochkina,A4065,19961204,-,-,9.73,Log unit,,-,N(C(C(c1ccccc1)O)C)C,
CC1=C(O)C(CO)=C(CO)C=N1,-,R1321845,M6548,-,177,Pyridoxine,Koerner,charochkina,A4065,19961204,-,,8.96,Log unit,,-,n1c(C)c(O)c(CO)c(CO)c1,
[H]OC([H])([H])[C@@]([H])(O[H])[C@@]([H])(O[H])[C@@]([H])(O[H])C([H])([H])N1C2=NC(=O)N([H])C(=O)C2=NC2=C1C([H])=C(C(=C2[H])C([H])([H])[H])C([H])([H])[H],-,R1321846,M487,-,179,Riboflavine,Koerner,charochkina,A4065,19961204,-,-,9.69,Log unit,,-,[nH]1c(=O)nc2n(CC(C(C(CO)O)O)O)c3c(nc2c1=O)cc(c(C)c3)C,
OC(=O)C1=CC=CC=C1O,-,R1321847,M13520,-,180,Salicyclic acid,Koerner,charochkina,A4065,19961204,-,-,2.78,Log unit,,-,OC(=O)c1c(cccc1)O,
C\C=C\C=C\C(O)=O,-,R1321848,M12582,-,181,sorbic acid,Koerner,charochkina,A4065,19961204,-,-,4.5,Log unit,,-,OC(=O)C=CC=CC,
O=C1CC2OCC=C3CN4CCC56C4CC3C2C5N1C1=CC=CC=C61,-,R1321849,M9251,-,183,strychnine,Koerner,charochkina,A4065,19961204,-,-,8.26,Log unit,,-,N12C3C4(C5N(c6c4cccc6)C(=O)CC4C5C(C(=CCO4)C2)C3)CC1,
CNCC(O)C1=CC=C(O)C=C1,-,R1321850,M15374,-,186,Synephrine,Koerner,charochkina,A4065,19961204,4,7,9.6,Log unit,,-,N(C)CC(O)c1ccc(O)cc1,
CC(C)(C)NCC(O)C1=CC(O)=CC(O)=C1,-,R1321851,M13291,-,188,Terbutaline,Koerner,charochkina,A4065,19961204,4,7,8.65,Log unit,,-,N(C(C)(C)C)CC(O)c1cc(O)cc(O)c1,
CN(C)CC[C@]12[C@H]3OC4=C(O)C=CC(CC[C@@H]1CC[C@@H]3O)=C24,-,R1321852,M659559,-,189,Tetrahydro-a-morphimethine,Koerner,charochkina,A4065,19961204,-,-,8.65,Log unit,,-,N(CCC12C3C(CCC1CCc1ccc(c(c21)O3)O)O)(C)C,
CN1C2=C(NC=N2)C(=O)N(C)C1=O,-,R1321853,M14097,-,190,Theophylline,Koerner,charochkina,A4065,19961204,-,-,8.55,Log unit,,-,[nH]1cnc2n(c(=O)n(c(=O)c12)C)C,
NC(CO)(CO)CO,-,R1321854,M6104,-,191,TROMETHAMINE,Koerner,charochkina,A4065,19961204,-,-,8.08,Log unit,,-,NC(CO)(CO)CO,
[H]C(=O)C1=CC=C(O)C(OC)=C1,-,R1321855,M7075,-,194,Vanillin,Koerner,charochkina,A4065,19961204,-,-,7.396,Log unit,,-,Oc1c(OC)cc(cc1)C=O,
COC1=CC=C(C=O)C=C1O,-,R1321856,M5307,-,195,"Vanillin, iso",Koerner,charochkina,A4065,19961204,-,-,8.889,Log unit,,-,Oc1c(OC)ccc(c1)C=O,
COC1=C(O)C(C=O)=CC=C1,-,R1321857,M5060,-,196,"Vanillin, ortho",Koerner,charochkina,A4065,19961204,-,-,7.912,Log unit,,-,Oc1c(OC)cccc1C=O,
CC(=O)CC(C1=CC=CC=C1)C1=C(O)C2=C(OC1=O)C=CC=C2,-,R1321858,M8620,-,197,Warfarin,Koerner,charochkina,A4065,19961204,4,7,5.02,Log unit,,-,Oc1c2ccccc2oc(=O)c1C(c1ccccc1)CC(=O)C,