Smiles,CASRN,Record ID,Molecule ID,External ID,N,Name,Introducer,Modifer,Article ID,PUBMED ID,PAGE,TABLE,pKa,pKa Unit,Temperature,Temperature Unit,Ionizable center smiles,IC group
[NH3+]CCCCC([NH3+])C(O)=O,-,R935803,M17151,-,-,lysine,Koerner,charochkina,A5793,-,-,-,2.17,Log unit,25,?C,OC(=O)C([NH3+])CCCC[NH3+],"{co2h=2, aliphatic_carboxylic_acid=2}"
[NH3+]C(CC(O)=O)C(O)=O,-,R935804,M17150,-,-,ASPARTIC ACID,Koerner,charochkina,A5793,-,-,-,2.01,Log unit,25,?C,OC(=O)CC([NH3+])C(=O)O,"{co2h=2, aliphatic_carboxylic_acid=2}"
[NH3+]C(CC(O)=O)C([O-])=O,-,R935805,M17150,-,-,ASPARTIC ACID,Koerner,charochkina,A5793,-,-,-,3.9,Log unit,25,?C,OC(=O)CC([NH3+])C(=O)[O-],"{co2h=2, aliphatic_carboxylic_acid=2}"
NC(CC([O-])=O)C([O-])=O,-,R935806,M17150,-,-,ASPARTIC ACID,Koerner,charochkina,A5793,-,-,-,10,Log unit,25,?C,NC(CC(=O)[O-])C(=O)[O-],{nr2=5}
[NH3+]C(CC(O)=O)C([O-])=O,-,R935807,M17150,-,-,ASPARTIC ACID,Koerner,charochkina,A5793,-,-,-,3.8,Log unit,25,?C,OC(=O)CC([NH3+])C(=O)[O-],"{co2h=2, aliphatic_carboxylic_acid=2}"
NC(CC([O-])=O)C([O-])=O,-,R935808,M17150,-,-,ASPARTIC ACID,Koerner,charochkina,A5793,-,-,-,9.5,Log unit,25,?C,NC(CC(=O)[O-])C(=O)[O-],{nr2=5}
[NH3+]C(CCC(O)=O)C(O)=O,-,R935809,M15779,-,-,Glutamic acid,Koerner,charochkina,A5793,-,-,-,2.155,Log unit,25,?C,OC(=O)CCC([NH3+])C(=O)O,{aliphatic_carboxylic_acid=2}
CCOC(=O)C([NH3+])CCC(O)=O,-,R935810,M1034161,-,-,glutamic acid-alpha-ethyl half ester,Koerner,charochkina,A5793,-,-,-,3.846,Log unit,25,?C,OC(=O)CCC([NH3+])C(=O)OCC,"{co2h=2, aliphatic_carboxylic_acid=2}"
CCOC(=O)CCC([NH3+])C(O)=O,-,R935811,M24602,-,-,glutamic acid-gamma-ethyl half ester,Koerner,charochkina,A5793,-,-,-,2.148,Log unit,25,?C,OC(=O)C([NH3+])CCC(=O)OCC,"{co2h=2, aliphatic_carboxylic_acid=2}"
OC(=O)C[NH2+]CC([O-])=O,-,R935812,M19603,-,-,IMINODIACETIC ACID,Koerner,charochkina,A5793,-,-,-,2.32,Log unit,25,?C,OC(=O)C[NH2+]CC(=O)[O-],"{co2h=2, aliphatic_carboxylic_acid=2}"
[O-]C(=O)CNCC([O-])=O,-,R935813,M19603,-,-,IMINODIACETIC ACID,Koerner,charochkina,A5793,-,-,-,9.42,Log unit,25,?C,N(CC(=O)[O-])CC(=O)[O-],{nr2=4}
C[NH+](CC(O)=O)CC(O)=O,-,R935814,M74200,-,-,methylaminediacetic acid,Koerner,charochkina,A5793,-,-,-,2.15,Log unit,25,?C,[NH+](CC(=O)O)(C)CC(=O)O,"{aliphatic_carboxylic_acid=2, nr2=4}"
CN(CC([O-])=O)CC([O-])=O,-,R935815,M74200,-,-,methylaminediacetic acid,Koerner,charochkina,A5793,-,-,-,9.57,Log unit,25,?C,N(CC(=O)[O-])(C)CC(=O)[O-],{nr2=4}
OC(=O)C[NH+](CC(O)=O)C1=CC=CC=C1,-,R935816,M119249,-,-,anilinediacetic acid,Koerner,charochkina,A5793,-,-,-,2.7,Log unit,25,?C,OC(=O)C[N+](c1ccccc1)CC(=O)O,"{co2h=8, aliphatic_carboxylic_acid=8}"
[O-]C(=O)CN(CC([O-])=O)C1=CC=CC=C1,-,R935817,M119249,-,-,anilinediacetic acid,Koerner,charochkina,A5793,-,-,-,5,Log unit,25,?C,N(c1ccccc1)(CC(=O)[O-])CC(=O)[O-],{nr2=4}
OC(=O)C[NH+](CC(O)=O)CC(O)=O,-,R935818,M19502,-,-,nitriloacetic acid,Koerner,charochkina,A5793,-,-,-,1.3,Log unit,25,?C,OC(=O)C[NH+](CC(=O)O)CC(=O)O,"{co2h=2, aliphatic_carboxylic_acid=2}"
OC(=O)C[NH+](CC(O)=O)CC([O-])=O,-,R935819,M19502,-,-,nitriloacetic acid,Koerner,charochkina,A5793,-,-,-,1.7,Log unit,25,?C,OC(=O)C[NH+](CC(=O)[O-])CC(=O)O,"{co2h=8, aliphatic_carboxylic_acid=8}"
OC(=O)C[NH+](CC([O-])=O)CC([O-])=O,-,R935820,M19502,-,-,nitriloacetic acid,Koerner,charochkina,A5793,-,-,-,2.4,Log unit,25,?C,OC(=O)C[NH+](CC(=O)[O-])CC(=O)[O-],"{co2h=12, aliphatic_carboxylic_acid=12}"
OC(=O)CC[NH2+]CC([O-])=O,-,R935821,M21025,-,-,iminopropionic acid-acetic acid,Koerner,charochkina,A5793,-,-,-,3.61,Log unit,25,?C,OC(=O)CC[NH2+]CC(=O)[O-],"{co2h=9, aliphatic_carboxylic_acid=9}"
[O-]C(=O)CCNCC([O-])=O,-,R935822,M21025,-,-,iminopropionic acid-acetic acid,Koerner,charochkina,A5793,-,-,-,9.46,Log unit,25,?C,N(CC(=O)[O-])CCC(=O)[O-],{nr2=4}
OC(=O)CC[NH2+]CCC([O-])=O,-,R935823,M66639,-,-,IMINODIPROPIONIC ACID,Koerner,charochkina,A5793,-,-,-,4.11,Log unit,25,?C,OC(=O)CC[NH2+]CCC(=O)[O-],"{co2h=10, aliphatic_carboxylic_acid=10}"
[O-]C(=O)CCNCCC([O-])=O,-,R935824,M66639,-,-,IMINODIPROPIONIC ACID,Koerner,charochkina,A5793,-,-,-,9.61,Log unit,25,?C,N(CCC(=O)[O-])CCC(=O)[O-],{nr2=5}
[O-]C(=O)CNCC[NH2+]CC([O-])=O,-,R935825,M110435,-,-,"ethylenediamine-N,N-diacetic acid",Koerner,charochkina,A5793,-,-,-,6.8,Log unit,25,?C,N(CC(=O)[O-])CC[NH2+]CC(=O)[O-],{nr2=4}
OC(=O)CC[NH+](CC[NH+](CCC(O)=O)CC([O-])=O)CC([O-])=O,-,R935826,M1034164,-,-,"ethylenediamine-N,N'-dipropionic acid-N,N'-diacetic acid",Koerner,charochkina,A5793,-,-,-,3.3,Log unit,25,?C,OC(=O)CC[NH+](CC(=O)[O-])CC[NH+](CC(=O)[O-])CCC(=O)O,"{co2h=9, aliphatic_carboxylic_acid=9}"
OC(=O)CC[NH+](CC[NH+](CCC([O-])=O)CC([O-])=O)CC([O-])=O,-,R935827,M1034164,-,-,"ethylenediamine-N,N'-dipropionic acid-N,N'-diacetic acid",Koerner,charochkina,A5793,-,-,-,3.5,Log unit,25,?C,OC(=O)CC[NH+](CC[NH+](CC(=O)[O-])CCC(=O)[O-])CC(=O)[O-],"{co2h=21, aliphatic_carboxylic_acid=21}"
CC(=O)C(O)=O,-,R935828,M15229,-,-,Pyruvic acid,Koerner,charochkina,A5793,-,-,-,2.6,Log unit,25,?C,OC(=O)C(=O)C,"{co2h=2, aliphatic_carboxylic_acid=2}"
CC(=O)CC(O)=O,-,R935829,M21486,-,-,ACETOACETIC ACID,Koerner,charochkina,A5793,-,-,-,3.6,Log unit,25,?C,OC(=O)CC(=O)C,"{co2h=2, aliphatic_carboxylic_acid=2}"
CC(=O)CCC(O)=O,-,R935830,M19168,-,-,LEVULINIC ACID,Koerner,charochkina,A5793,-,-,-,4.6,Log unit,25,?C,OC(=O)CCC(=O)C,"{co2h=2, aliphatic_carboxylic_acid=2}"
CC(=O)CC(=O)C(O)=O,-,R935831,M30565,-,-,"alpha,gamma-diketo-n-valeric acid",Koerner,charochkina,A5793,-,-,-,2.9,Log unit,25,?C,OC(=O)C(=O)CC(=O)C,"{co2h=2, aliphatic_carboxylic_acid=2}"
CC(=O)CCCC(O)=O,-,R935832,M27865,-,-,gamma-acetyl-n-butyric acid,Koerner,charochkina,A5793,-,-,-,4.8,Log unit,25,?C,OC(=O)CCCC(=O)C,"{co2h=2, aliphatic_carboxylic_acid=2}"
OC(=O)CC(=O)C(O)=O,-,R935833,M20015,-,-,oxaloacetic acid,Koerner,charochkina,A5793,-,-,-,2.55,Log unit,25,?C,OC(=O)CC(=O)C(=O)O,"{co2h=2, aliphatic_carboxylic_acid=2}"
OC(=O)CC(=O)C([O-])=O,-,R935834,M20015,-,-,oxaloacetic acid,Koerner,charochkina,A5793,-,-,-,4.2,Log unit,25,?C,OC(=O)CC(=O)C(=O)[O-],"{co2h=2, aliphatic_carboxylic_acid=2}"
[NH3+]C(CS([O-])(=O)=O)C(O)=O,-,R935835,M32758,-,-,Cysteic Acid,Koerner,charochkina,A5793,-,-,-,1.89,Log unit,25,?C,OC(=O)C(CS(=O)(=O)[O-])[NH3+],"{co2h=9, aliphatic_carboxylic_acid=9}"
NC(CS([O-])(=O)=O)C([O-])=O,-,R935836,M32758,-,-,Cysteic Acid,Koerner,charochkina,A5793,-,-,-,8.7,Log unit,25,?C,NC(CS(=O)(=O)[O-])C(=O)[O-],{nr2=6}
OC(=O)COC1=CC=CC=C1F,-,R935837,M1276,-,-,ortho-fluorophenoxy-acetic acid,Koerner,charochkina,A5793,-,-,-,3.08,Log unit,25,?C,OC(=O)COc1c(F)cccc1,"{co2h=11, aliphatic_carboxylic_acid=11}"
OC(=O)COC1=CC(F)=CC=C1,-,R935838,M2101,-,-,p-fluoro phenoxy-acetic acid,Koerner,charochkina,A5793,-,-,-,3.08,Log unit,25,?C,OC(=O)COc1cc(F)ccc1,"{co2h=11, aliphatic_carboxylic_acid=11}"
OC(=O)COC1=CC=C(F)C=C1,-,R935839,M13985,-,-,p-fluorophenoxy-acetic acid,Koerner,charochkina,A5793,-,-,-,3.13,Log unit,25,?C,OC(=O)COc1ccc(F)cc1,"{co2h=9, aliphatic_carboxylic_acid=9}"
OC(=O)COC1=CC=CC=C1Cl,-,R935840,M8150,-,-,o-chlorophenoxy-acetic acid,Koerner,charochkina,A5793,-,-,-,3.05,Log unit,25,?C,OC(=O)COc1c(Cl)cccc1,"{co2h=11, aliphatic_carboxylic_acid=11}"
OC(=O)COC1=CC(Cl)=CC=C1,-,R935841,M13195,-,-,meta-chlorophenoxy-acetic acid,Koerner,charochkina,A5793,-,-,-,3.055,Log unit,25,?C,OC(=O)COc1cc(Cl)ccc1,"{co2h=11, aliphatic_carboxylic_acid=11}"
OC(=O)COC1=CC=C(Cl)C=C1,-,R935842,M10518,-,-,para-chlorophenoxy-acetic acid,Koerner,charochkina,A5793,-,-,-,3.04,Log unit,25,?C,OC(=O)COc1ccc(Cl)cc1,"{co2h=9, aliphatic_carboxylic_acid=9}"
CC1=CC(Cl)=CC=C1OCC(O)=O,-,R935843,M12292,-,-,2-METHYL-4-CHLOROPHENOXYACETIC ACID,Koerner,charochkina,A5793,-,-,-,3.195,Log unit,25,?C,OC(=O)COc1ccc(Cl)cc1C,"{co2h=9, aliphatic_carboxylic_acid=9}"
CC1=CC(Cl)=CC(Cl)=C1OCC(O)=O,-,R935844,M1050308,-,-,"2-methyl-4,6-dichlorophenoxy-acetic acid",Koerner,charochkina,A5793,-,-,-,3.13,Log unit,25,?C,OC(=O)COc1c(cc(Cl)cc1C)Cl,"{co2h=10, aliphatic_carboxylic_acid=10}"
OC(=O)COC1=C(Cl)C=C(Cl)C=C1,-,R935845,M8292,-,-,"2,4-dichlorophenoxy-acetic acid",Koerner,charochkina,A5793,-,-,-,2.64,Log unit,25,?C,OC(=O)COc1c(cc(Cl)cc1)Cl,"{co2h=10, aliphatic_carboxylic_acid=10}"
OC(=O)COC1=CC=CC=C1Br,-,R935846,M618,-,-,o-bromophenoxy-acetic acid,Koerner,charochkina,A5793,-,-,-,3.13,Log unit,25,?C,OC(=O)COc1c(Br)cccc1,"{co2h=11, aliphatic_carboxylic_acid=11}"
OC(=O)COC1=CC(Br)=CC=C1,-,R935847,M1581,-,-,m-Bromophenoxyacetic acid,Koerner,charochkina,A5793,-,-,-,3.065,Log unit,25,?C,OC(=O)COc1cc(Br)ccc1,"{co2h=11, aliphatic_carboxylic_acid=11}"
OC(=O)COC1=CC=C(Br)C=C1,-,R935848,M10763,-,-,p-Bromophenoxyacetic acid,Koerner,charochkina,A5793,-,-,-,3.13,Log unit,25,?C,OC(=O)COc1ccc(Br)cc1,"{co2h=9, aliphatic_carboxylic_acid=9}"
OC(=O)COC1=CC=CC=C1I,-,R935849,M8335,-,-,ortho-iodophenoxy-acetic acid,Koerner,charochkina,A5793,-,-,-,3.17,Log unit,25,?C,OC(=O)COc1c(I)cccc1,"{co2h=11, aliphatic_carboxylic_acid=11}"
OC(=O)COC1=CC(I)=CC=C1,-,R935850,M2751,-,-,m-iodophenoxy-acetic acid,Koerner,charochkina,A5793,-,-,-,3.13,Log unit,25,?C,OC(=O)COc1cc(I)ccc1,"{co2h=11, aliphatic_carboxylic_acid=11}"
OC(=O)COC1=CC=C(I)C=C1,-,R935851,M9806,-,-,p-iodophenoxy-acetic acid,Koerner,charochkina,A5793,-,-,-,3.16,Log unit,25,?C,OC(=O)COc1ccc(I)cc1,"{co2h=9, aliphatic_carboxylic_acid=9}"
OC(=O)COC1=CC=CC=C1C#N,-,R935852,M124388,-,-,o-cyanophenoxy-acetic acid,Koerner,charochkina,A5793,-,-,-,2.97,Log unit,25,?C,OC(=O)COc1ccccc1C#N,"{co2h=8, aliphatic_carboxylic_acid=8}"
OC(=O)COC1=CC=CC(=C1)C#N,-,R935853,M11445,-,-,m-cyanophenoxy-acetic acid,Koerner,charochkina,A5793,-,-,-,3.03,Log unit,25,?C,OC(=O)COc1cccc(c1)C#N,"{co2h=12, aliphatic_carboxylic_acid=12}"
OC(=O)COC1=CC=C(C=C1)C#N,-,R935854,M806,-,-,p-cyanophenoxy-acetic acid,Koerner,charochkina,A5793,-,-,-,2.9,Log unit,25,?C,OC(=O)COc1ccc(cc1)C#N,"{co2h=8, aliphatic_carboxylic_acid=8}"
OC(=O)COC1=CC=CC=C1N(=O)=O,-,R935855,M25897,-,-,ortho-nitrophenoxy-acetic acid,Koerner,charochkina,A5793,-,-,-,2.9,Log unit,25,?C,OC(=O)COc1ccccc1N(=O)=O,"{co2h=8, aliphatic_carboxylic_acid=8}"
OC(=O)COC1=CC=CC(=C1)N(=O)=O,-,R935856,M896,-,-,m-nitrophenoxy-acetic acid,Koerner,charochkina,A5793,-,-,-,2.93,Log unit,25,?C,OC(=O)COc1cccc(c1)N(=O)=O,"{co2h=13, aliphatic_carboxylic_acid=13}"
OC(=O)C(F)(F)F,-,R935657,M15134,-,-,Trifluoroacetic acid,Koerner,charochkina,A5793,-,-,-,0.4,Log unit,25,?C,OC(=O)C(F)(F)F,"{co2h=6, aliphatic_carboxylic_acid=6}"
OC(=O)C(Cl)(Cl)Cl,-,R935658,M17430,-,-,TRICHLOROACETIC ACID,Koerner,charochkina,A5793,-,-,-,0.52,Log unit,25,?C,OC(=O)C(Cl)(Cl)Cl,"{co2h=6, aliphatic_carboxylic_acid=6}"
CC(Cl)C(O)=O,-,R935659,M22216,-,-,alpha-Chloropropionic acid,Koerner,charochkina,A5793,-,-,-,2.88,Log unit,25,?C,OC(=O)C(Cl)C,"{co2h=5, aliphatic_carboxylic_acid=5}"
OC(=O)CCCl,-,R935660,M9074,-,-,beta-Chloropropionic acid,Koerner,charochkina,A5793,-,-,-,4.045,Log unit,25,?C,OC(=O)CCCl,"{co2h=5, aliphatic_carboxylic_acid=5}"
CC(Br)C(O)=O,-,R935661,M6905,-,-,alpha-bromo-propionic acid,Koerner,charochkina,A5793,-,-,-,2.97,Log unit,25,?C,OC(=O)C(Br)C,"{co2h=5, aliphatic_carboxylic_acid=5}"
OC(=O)CCBr,-,R935662,M1968,-,-,beta-bromo-propionic acid,Koerner,charochkina,A5793,-,-,-,3.92,Log unit,25,?C,OC(=O)CCBr,"{co2h=5, aliphatic_carboxylic_acid=5}"
CC(I)C(O)=O,-,R935663,M134215,-,-,2-iodo-propanoic acid,Koerner,charochkina,A5793,-,-,-,3.11,Log unit,25,?C,OC(=O)C(I)C,"{co2h=5, aliphatic_carboxylic_acid=5}"
OC(=O)CCI,-,R935664,M5698,-,-,beta-iodo-propionic acid,Koerner,charochkina,A5793,-,-,-,4.09,Log unit,25,?C,OC(=O)CCI,"{co2h=5, aliphatic_carboxylic_acid=5}"
CC(C#N)C(O)=O,-,R935665,M134216,-,-,alpha-cyano-propionic acid,Koerner,charochkina,A5793,-,-,-,2.37,Log unit,25,?C,OC(=O)C(C#N)C,"{co2h=2, aliphatic_carboxylic_acid=2}"
OC(=O)CCC#N,-,R935666,M124336,-,-,beta-cyano-propionic acid,Koerner,charochkina,A5793,-,-,-,3.99,Log unit,25,?C,OC(=O)CCC#N,"{co2h=2, aliphatic_carboxylic_acid=2}"
OC(=O)CC(F)(F)F,-,R935667,M124315,-,-,"beta,beta,beta-trifluoropropionic acid",Koerner,charochkina,A5793,-,-,-,3.02,Log unit,25,?C,OC(=O)CC(F)(F)F,"{co2h=7, aliphatic_carboxylic_acid=7}"
CCC(Cl)C(O)=O,-,R935668,M73878,-,-,alpha-chloro-iso-butyric acid,Koerner,charochkina,A5793,-,-,-,2.97,Log unit,25,?C,OC(=O)C(Cl)CC,"{co2h=4, aliphatic_carboxylic_acid=4}"
OC(=O)CCCC#N,-,R935669,M124355,-,-,gamma-cyano-n-butyric acid,Koerner,charochkina,A5793,-,-,-,4.44,Log unit,25,?C,OC(=O)CCCC#N,"{co2h=2, aliphatic_carboxylic_acid=2}"
CCC(C#N)C(O)=O,-,R935670,M1018383,-,-,alpha-cyano-iso-butyric acid,Koerner,charochkina,A5793,-,-,-,2.42,Log unit,25,?C,OC(=O)C(C#N)CC,"{co2h=2, aliphatic_carboxylic_acid=2}"
OC(=O)CCC(F)(F)F,-,R935671,M124348,-,-,"alpha,alpha,alpha-trifluoro-n-butyric acid",Koerner,charochkina,A5793,-,-,-,4.155,Log unit,25,?C,OC(=O)CCC(F)(F)F,"{co2h=8, aliphatic_carboxylic_acid=8}"
OC(=O)C(F)(F)C(F)(F)C(F)(F)F,-,R935672,M15245,-,-,heptafluoro-n-butyric acid,Koerner,charochkina,A5793,-,-,-,0.2,Log unit,25,?C,OC(=O)C(C(C(F)(F)F)(F)F)(F)F,"{co2h=12, aliphatic_carboxylic_acid=12}"
CCC(CBr)C(O)=O,-,R935673,M134228,-,-,alpha-ethyl-beta-bromo-propionic acid,Koerner,charochkina,A5793,-,-,-,3.92,Log unit,25,?C,OC(=O)C(CBr)CC,"{co2h=5, aliphatic_carboxylic_acid=5}"
OC(=O)CCCC(F)(F)F,-,R935674,M124359,-,-,"delta,delta,delta-trifluoro-n-valeric acid",Koerner,charochkina,A5793,-,-,-,4.49,Log unit,25,?C,OC(=O)CCCC(F)(F)F,"{co2h=9, aliphatic_carboxylic_acid=9}"
OC(=O)CCC(F)(F)C(F)(F)C(F)(F)F,-,R935675,M124351,-,-,"ggamma,gamma,delta,delta,epsilon,epsilon,epsilon-heptafluoro-n",Koerner,charochkina,A5793,-,-,-,4.18,Log unit,25,?C,OC(=O)CCC(C(C(F)(F)F)(F)F)(F)F,"{co2h=14, aliphatic_carboxylic_acid=14}"
OC(=O)C(F)=C,-,R935676,M124302,-,-,alpha-fluoroacrylic acid,Koerner,charochkina,A5793,-,-,-,2.55,Log unit,25,?C,OC(=O)C(=C)F,"{co2h=5, aliphatic_carboxylic_acid=5}"
OC(=O)C=C(F)F,-,R935677,M124316,-,-,"beta,beta-difluoroacrylic acid",Koerner,charochkina,A5793,-,-,-,3.17,Log unit,25,?C,OC(=O)C=C(F)F,"{co2h=6, aliphatic_carboxylic_acid=6}"
OC(=O)C(F)=C(F)F,-,R935678,M66353,-,-,TRIFLUOROACRYLIC ACID,Koerner,charochkina,A5793,-,-,-,1.79,Log unit,25,?C,OC(=O)C(=C(F)F)F,"{co2h=7, aliphatic_carboxylic_acid=7}"
OC(=O)C=CCl,-,R935679,M26691,-,-,trans-beta-Chloroacrylic acid,Koerner,charochkina,A5793,-,-,-,3.65,Log unit,25,?C,OC(=O)C=CCl,"{co2h=5, aliphatic_carboxylic_acid=5}"
OC(=O)C=CCl,-,R935680,M26691,-,-,cis-beta-Chloroacrylic acid,Koerner,charochkina,A5793,-,-,-,3.32,Log unit,25,?C,OC(=O)C=CCl,"{co2h=5, aliphatic_carboxylic_acid=5}"
OC(=O)C(Cl)=C(Cl)Cl,-,R935681,M26582,-,-,Trichloroacrylic acid,Koerner,charochkina,A5793,-,-,-,1.17,Log unit,25,?C,OC(=O)C(=C(Cl)Cl)Cl,"{co2h=7, aliphatic_carboxylic_acid=7}"
CC=C(Cl)C(O)=O,-,R935682,M22245,-,-,alpha-chloro-crotonic acid,Koerner,charochkina,A5793,-,-,-,3.22,Log unit,25,?C,OC(=O)C(=CC)Cl,"{co2h=6, aliphatic_carboxylic_acid=6}"
OC(=O)C(Cl)C=C,-,R935683,M1018384,-,-,alpha-chloro-vinylacetic acid,Koerner,charochkina,A5793,-,-,-,2.54,Log unit,25,?C,OC(=O)C(Cl)C=C,"{co2h=6, aliphatic_carboxylic_acid=6}"
OC(=O)C=CC(F)(F)F,-,R935684,M1018385,-,-,"gamma,gamma,gamma-trifluoro-crotonic acid",Koerner,charochkina,A5793,-,-,-,3.415,Log unit,25,?C,OC(=O)C=CC(F)(F)F,"{co2h=8, aliphatic_carboxylic_acid=8}"
OC(=O)C=CC(F)(F)C(F)(F)C(F)F,-,R935685,M1018386,-,-,heptafluoro-n-propylacrylic acid,Koerner,charochkina,A5793,-,-,-,3.23,Log unit,25,?C,OC(=O)C=CC(C(C(F)F)(F)F)(F)F,"{co2h=13, aliphatic_carboxylic_acid=13}"
OC(=O)C(C#N)C1CCCCC1,-,R935686,M1018387,-,-,cyclohexyl-cyanoacetic acid,Koerner,charochkina,A5793,-,-,-,2.37,Log unit,25,?C,OC(=O)C(C1CCCCC1)C#N,"{co2h=9, aliphatic_carboxylic_acid=9}"
OC(=O)C1CCCCC1C#N,-,R935687,M1018030,-,-,trans-1-cyano-cyclohexane-2-carboxylic acid,Koerner,charochkina,A5793,-,-,-,3.86,Log unit,25,?C,OC(=O)C1C(C#N)CCCC1,"{co2h=10, aliphatic_carboxylic_acid=10}"
OC(=O)CC(Br)C(O)=O,-,R935688,M21950,-,-,Monobromosuccinic acid,Koerner,charochkina,A5793,-,-,-,2.7,Log unit,25,?C,OC(=O)C(Br)CC(=O)O,"{co2h=4, aliphatic_carboxylic_acid=4}"
OC(=O)CC(Br)C([O-])=O,-,R935689,M21950,-,-,Monobromosuccinic acid,Koerner,charochkina,A5793,-,-,-,4.6,Log unit,25,?C,OC(=O)CC(Br)C(=O)[O-],"{co2h=8, aliphatic_carboxylic_acid=8}"
OC(=O)C(Cl)C(Cl)C(O)=O,-,R935690,M123283,-,-,"rac.-alpha,alpha'-dichlorosuccinic acid",Koerner,charochkina,A5793,-,-,-,1.73,Log unit,25,?C,OC(=O)C(Cl)C(Cl)C(=O)O,"{co2h=4, aliphatic_carboxylic_acid=4}"
OC(=O)C(Cl)C(Cl)C([O-])=O,-,R935691,M123283,-,-,"rac.-alpha,alpha'-dichlorosuccinic acid",Koerner,charochkina,A5793,-,-,-,2.8,Log unit,25,?C,OC(=O)C(C(Cl)C(=O)[O-])Cl,"{co2h=9, aliphatic_carboxylic_acid=9}"
OC(=O)C(Cl)C(Br)C(O)=O,-,R935692,M1018388,-,-,threo-alpha-chloro-alpha'-bromo-succinic acid,Koerner,charochkina,A5793,-,-,-,1.76,Log unit,25,?C,OC(=O)C(Br)C(Cl)C(=O)O,"{co2h=4, aliphatic_carboxylic_acid=4}"
OC(=O)C(Cl)C(Br)C([O-])=O,-,R935693,M1018388,-,-,threo-alpha-chloro-alpha'-bromo-succinic acid,Koerner,charochkina,A5793,-,-,-,2.95,Log unit,25,?C,OC(=O)C(C(Br)C(=O)[O-])Cl,"{co2h=9, aliphatic_carboxylic_acid=9}"
OC(=O)C(Br)C(Br)C(O)=O,-,R935694,M21249,-,-,"rac.-alpha,alpha'-dibromo-succinic acid",Koerner,charochkina,A5793,-,-,-,1.79,Log unit,25,?C,OC(=O)C(Br)C(Br)C(=O)O,"{co2h=4, aliphatic_carboxylic_acid=4}"
OC(=O)C(Br)C(Br)C([O-])=O,-,R935695,M21249,-,-,"rac.-alpha,alpha'-dibromo-succinic acid",Koerner,charochkina,A5793,-,-,-,2.67,Log unit,25,?C,OC(=O)C(Br)C(Br)C(=O)[O-],"{co2h=4, aliphatic_carboxylic_acid=4}"
[OH:5][CH2:4][C:2]([OH:3])=[O:1],-,R935696,M94,-,-,Glycolic Acid,Koerner,charochkina,A5793,-,-,-,3.835,Log unit,25,?C,OC(=O)CO,"{co2h=2, aliphatic_carboxylic_acid=2}"
CCOCC(O)=O,-,R935697,M22851,-,-,ethoxy-acetic acid,Koerner,charochkina,A5793,-,-,-,3.65,Log unit,25,?C,OC(=O)COCC,"{co2h=2, aliphatic_carboxylic_acid=2}"
OC(=O)COC1CCCC1,-,R935698,M46520,-,-,cyclopentyl-oxy-acetic acid,Koerner,charochkina,A5793,-,-,-,3.7,Log unit,25,?C,OC(=O)COC1CCCC1,"{co2h=9, aliphatic_carboxylic_acid=9}"
OC(=O)COC1CCCCC1,-,R935699,M740749,-,-,cyclohexyl-oxy-acetic acid,Koerner,charochkina,A5793,-,-,-,3.54,Log unit,25,?C,OC(=O)COC1CCCCC1,"{co2h=8, aliphatic_carboxylic_acid=8}"
OC(=O)COCC1CCCCC1,-,R935700,M1018389,-,-,cyclohexylmethoxy-acetic acid,Koerner,charochkina,A5793,-,-,-,3.9,Log unit,25,?C,OC(=O)COCC1CCCCC1,"{co2h=9, aliphatic_carboxylic_acid=9}"
CC1CCCCC1OCC(O)=O,-,R935701,M740784,-,-,2-methylcyclohexyl-oxy-acetic acid,Koerner,charochkina,A5793,-,-,-,3.8,Log unit,25,?C,OC(=O)COC1CCCCC1C,"{co2h=11, aliphatic_carboxylic_acid=11}"
CC1CCCC(C1)OCC(O)=O,-,R935702,M740766,-,-,trans-3-methylcyclohexyl-oxy-acetic acid,Koerner,charochkina,A5793,-,-,-,3.81,Log unit,25,?C,OC(=O)COC1CCCC(C)C1,"{co2h=11, aliphatic_carboxylic_acid=11}"
OC(=O)COC1CCC2CCCCC2C1,-,R935703,M1018390,-,-,dekahydronaphthyl-oxy-acetic acid,Koerner,charochkina,A5793,-,-,-,3.64,Log unit,25,?C,OC(=O)COC1CC2CCCCC2CC1,"{co2h=10, aliphatic_carboxylic_acid=10}"
OC(=O)COC1=CC=CC=C1,-,R935704,M6066,-,-,phenoxy-acetic acid,Koerner,charochkina,A5793,-,-,-,3.145,Log unit,25,?C,OC(=O)COc1ccccc1,"{co2h=8, aliphatic_carboxylic_acid=8}"
CC1=CC=CC=C1OCC(O)=O,-,R935705,M9203,-,-,ortho-methylphenoxy-acetic acid,Koerner,charochkina,A5793,-,-,-,3.23,Log unit,25,?C,OC(=O)COc1ccccc1C,"{co2h=8, aliphatic_carboxylic_acid=8}"
CC1=CC(OCC(O)=O)=CC=C1,-,R935706,M12093,-,-,meta-methylphenoxy-acetic acid,Koerner,charochkina,A5793,-,-,-,3.2,Log unit,25,?C,OC(=O)COc1cccc(c1)C,"{co2h=11, aliphatic_carboxylic_acid=11}"
CC1=CC=C(OCC(O)=O)C=C1,-,R935707,M10322,-,-,para-methylphenxoy-acetic acid,Koerner,charochkina,A5793,-,-,-,3.21,Log unit,25,?C,OC(=O)COc1ccc(cc1)C,"{co2h=8, aliphatic_carboxylic_acid=8}"
CC1=CC=CC(C)=C1OCC(O)=O,-,R935708,M108803,-,-,"2,6-dimethylphenoxy-acetic acid",Koerner,charochkina,A5793,-,-,-,3.35,Log unit,25,?C,OC(=O)COc1c(cccc1C)C,"{co2h=9, aliphatic_carboxylic_acid=9}"
COC1=CC=CC=C1OCC(O)=O,-,R935709,M4403,-,-,ortho-methoxyphenoxy-acetic acid,Koerner,charochkina,A5793,-,-,-,3.23,Log unit,25,?C,OC(=O)COc1ccccc1OC,"{co2h=8, aliphatic_carboxylic_acid=8}"
COC1=CC(OCC(O)=O)=CC=C1,-,R935710,M146,-,-,meta-methoxyphenoxy-acetic acid,Koerner,charochkina,A5793,-,-,-,3.14,Log unit,25,?C,OC(=O)COc1cccc(c1)OC,"{co2h=12, aliphatic_carboxylic_acid=12}"