"SMILES","CASRN","RECORDID","MOLECULEID","EXTERNALID","N","NAME","NAME","INTRODUCER","MODIFIER","ARTICLEID","PUBMEDID","PAGE","TABLE","pKa (smiles as ob. cond.) {measured}","UNIT {pKa (smiles as ob. cond.)}","pKa (smiles as ob. cond.) {measured, converted}","UNIT {pKa (smiles as ob. cond.)}","Ionizable centre (smiles)","IC group detected","AtomNR of IC","groupsAndICs","IC smiles given","IC group given","Temperature","UNIT {Temperature}","MultiGroupDetection","COMMENTS","INCHI_KEY"
"C(CC1=CC=CC=N1)[NH+]1CCCCC1","-","R946250","M30341","-","-","2-(piperidinoethyl)pyridine","-","Koerner","charochkina","A5793","-","-","-","3.59","Log unit","3.59","Log unit","n1ccccc1CC[NH+]1CCCCC1","0","","{n=[0], nr2=[8]}","n(ccc1)c(c1)CC[N+1](CCC2)CC2","n","25.0","?C","","-","ZOXWZYTVCGKPOX-UHFFFAOYSA"
"C(CC1=CN=CC=C1)N1CCCCC1","-","R946251","M32949","-","-","3-(piperidinoethyl)pyridine","-","Koerner","charochkina","A5793","-","-","-","8.81","Log unit","8.81","Log unit","N1(CCc2cnccc2)CCCCC1","8","","{n=[0], nr2=[8]}","n(ccc1)cc1CCN(CCC2)CC2","nr2","25.0","?C","","-","CUYAYRDAKAKHLZ-UHFFFAOYSA"
"C(CC1=CN=CC=C1)[NH+]1CCCCC1","-","R946252","M32949","-","-","3-(piperidinoethyl)pyridine","-","Koerner","charochkina","A5793","-","-","-","4.25","Log unit","4.25","Log unit","n1cccc(c1)CC[NH+]1CCCCC1","0","","{n=[0], nr2=[8]}","n(ccc1)cc1CC[N+1](CCC2)CC2","n","25.0","?C","","-","CUYAYRDAKAKHLZ-UHFFFAOYSA"
"C(CC1=CC=NC=C1)N1CCCCC1","-","R946253","M32950","-","-","4-(piperidinoethyl)pyridine","-","Koerner","charochkina","A5793","-","-","-","9.06","Log unit","9.06","Log unit","N1(CCc2ccncc2)CCCCC1","6","","{n=[0], nr2=[6]}","n(ccc1CCN(CCC2)CC2)cc1","nr2","25.0","?C","","-","ICBUOQBBEUSCAJ-UHFFFAOYSA"
"C(CC1=CC=NC=C1)[NH+]1CCCCC1","-","R946254","M32950","-","-","4-(piperidinoethyl)pyridine","-","Koerner","charochkina","A5793","-","-","-","4.7","Log unit","4.7","Log unit","n1ccc(CC[NH+]2CCCCC2)cc1","0","","{n=[0], nr2=[6]}","n(ccc1CC[N+1](CCC2)CC2)cc1","n","25.0","?C","","-","ICBUOQBBEUSCAJ-UHFFFAOYSA"
"C(N1CCCCC1)C1=CC=CC=N1","-","R946255","M1107290","-","-","2-(piperidinomethyl)pyridine","-","Koerner","charochkina","A5793","-","-","-","8.51","Log unit","8.51","Log unit","N1(Cc2ncccc2)CCCCC1","7","","{n=[0], nr2=[7]}","n(ccc1)c(c1)CN(CCC2)CC2","nr2","25.0","?C","","-","KTXLDFXGPHVDFV-UHFFFAOYSA"
"C(N1CCCCC1)C1=CN=CC=C1","-","R946256","M33007","-","-","3-(piperidinomethyl)pyridine","-","Koerner","charochkina","A5793","-","-","-","8.3","Log unit","8.3","Log unit","N1(Cc2cnccc2)CCCCC1","7","","{n=[0], nr2=[7]}","n(ccc1)cc1CN(CCC2)CC2","nr2","25.0","?C","","-","ZAHGBBWQTOLMRX-UHFFFAOYSA"
"C(N1CCCCC1)C1=CC=NC=C1","-","R946257","M1107291","-","-","4-(piperidinomethyl)pyridine","-","Koerner","charochkina","A5793","-","-","-","7.88","Log unit","7.88","Log unit","N1(Cc2ccncc2)CCCCC1","5","","{n=[0], nr2=[5]}","n(ccc1CN(CCC2)CC2)cc1","nr2","25.0","?C","","-","GTPXCGRVFBUXQC-UHFFFAOYSA"
"CCCC1=CC=CC=N1","-","R946258","M22690","-","-","2-n-Propylpyridine","-","Koerner","charochkina","A5793","-","-","-","5.97","Log unit","5.97","Log unit","n1ccccc1CCC","0","","{n=[0]}","n(ccc1)c(c1)CCC","n","25.0","?C","","-","OIALIKXMLIAOSN-UHFFFAOYSA"
"CCCC1=CC=NC=C1","-","R946259","M4865","-","-","4-n-Propylpyridine","-","Koerner","charochkina","A5793","-","-","-","6.05","Log unit","6.05","Log unit","n1ccc(CCC)cc1","0","","{n=[0]}","n(ccc1CCC)cc1","n","25.0","?C","","-","JAWZAONCXMJLFT-UHFFFAOYSA"
"C1=CN=C(C=C1)C1=CC=CC=N1","-","R946260","M9907","-","-","2-(2-Pyridyl)pyridine","-","Koerner","charochkina","A5793","-","-","-","3.95","Log unit","3.95","Log unit","n1ccccc1c1ncccc1","0","","{n=[0, 7]}","n(ccc1)c(c1)c(ncc2)cc2","n","25.0","?C","true","-","ROFVEXUMMXZLPA-UHFFFAOYSA"
"C1CCC([NH2+]C1)C1=NC=CC=C1","-","R946261","M1059072","-","-","2-(2-Pyridyl)pyridine","-","Koerner","charochkina","A5793","-","-","-","-0.2","Log unit","-0.2","Log unit","n1c(C2[NH2+][CH][CH][CH][CH]2)cccc1","7","","{n=[7]}","[n+1](ccc1)c(c1)c(ncc2)cc2","n","25.0","?C","","-","KXRQQPIHUMSJSS-UHFFFAOYSA"
"C1=CN=C(C=C1)C1=CN=CC=C1","-","R946262","M21908","-","-","2-(3-pyridyl)pyridine","-","Koerner","charochkina","A5793","-","-","-","4.12","Log unit","4.12","Log unit","n1cccc(c1)c1ncccc1","0","","{n=[0, 7]}","n(ccc1)cc1c(ncc2)cc2","n","25.0","?C","true","-","VEKIYFGCEAJDDT-UHFFFAOYSA"
"C1C[NH2+]CC(C1)C1=NC=CC=C1","-","R946263","M1106800","-","-","2-(3-pyridyl)pyridine","-","Koerner","charochkina","A5793","-","-","-","1.82","Log unit","1.82","Log unit","n1c(C2[CH][NH2+][CH][CH][CH]2)cccc1","7","","{n=[7]}","[n+1](ccc1)cc1c(ncc2)cc2","n","25.0","?C","","-","ZCEKZDKAGHJNRD-UHFFFAOYSA"
"C1=CN=C(C=C1)C1=CC=NC=C1","-","R946264","M21906","-","-","2-(4-pyridyl)pyridine","-","Koerner","charochkina","A5793","-","-","-","4.37","Log unit","4.37","Log unit","n1ccc(c2ncccc2)cc1","0","","{n=[0, 5]}","n(ccc1c(ncc2)cc2)cc1","n","25.0","?C","true","-","RMHQDKYZXJVCME-UHFFFAOYSA"
"C(CC1=CC=CC=N1)N1CCCC1","-","R946265","M124451","-","-","2-[2-(N-PYRROLIDINYL)ETHYL]PYRIDINE","-","Koerner","charochkina","A5793","-","-","-","9.39","Log unit","9.39","Log unit","N1(CCc2ncccc2)CCCC1","8","","{n=[0], nr2=[8]}","n(ccc1)c(c1)CCN(CC2)CC2","nr2","25.0","?C","","-","OXEFHEYEQUISKC-UHFFFAOYSA"
"C(CC1=CN=CC=C1)N1CCCC1","-","R946266","M34925","-","-","3-[2-(N-PYRROLIDINYL)ETHYL]PYRIDINE","-","Koerner","charochkina","A5793","-","-","-","9.28","Log unit","9.28","Log unit","N1(CCc2cnccc2)CCCC1","8","","{n=[0], nr2=[8]}","n(ccc1)cc1CCN(CC2)CC2","nr2","25.0","?C","","-","YWULZWMGJASRBS-UHFFFAOYSA"
"C(CC1=CC=NC=C1)N1CCCC1","-","R946267","M124472","-","-","4-[2-(N-PYRROLIDINYL)ETHYL]PYRIDINE","-","Koerner","charochkina","A5793","-","-","-","9.27","Log unit","9.27","Log unit","N1(CCc2ccncc2)CCCC1","6","","{n=[0], nr2=[6]}","n(ccc1CCN(CC2)CC2)cc1","nr2","25.0","?C","","-","GNJYGFKCUMGKOY-UHFFFAOYSA"
"C(N1CCCC1)C1=CC=CC=N1","-","R946268","M124434","-","-","2-(1-PYRROLIDINYLMETHYL)PYRIDINE","-","Koerner","charochkina","A5793","-","-","-","8.56","Log unit","8.56","Log unit","N1(Cc2ncccc2)CCCC1","7","","{n=[0], nr2=[7]}","n(ccc1)c(c1)CN(CC2)CC2","nr2","25.0","?C","","-","XLXANWGTOZKKAZ-UHFFFAOYSA"
"C(N1CCCC1)C1=CN=CC=C1","-","R946269","M20238","-","-","3-(1-Pyrrolidinylmethyl)pyridine","-","Koerner","charochkina","A5793","-","-","-","8.36","Log unit","8.36","Log unit","N1(Cc2cnccc2)CCCC1","7","","{n=[0], nr2=[7]}","n(ccc1)cc1CN(CC2)CC2","nr2","25.0","?C","","-","YFCWBKBNFCDPDF-UHFFFAOYSA"
"C(N1CCCC1)C1=CC=NC=C1","-","R946270","M124460","-","-","4-(1-PYRROLIDINYLMETHYL)PYRIDINE","-","Koerner","charochkina","A5793","-","-","-","8.16","Log unit","8.16","Log unit","N1(Cc2ccncc2)CCCC1","5","","{n=[0], nr2=[5]}","n(ccc1CN(CC2)CC2)cc1","nr2","25.0","?C","","-","HFPXKSASPJFSOR-UHFFFAOYSA"
"[O-]S(=O)(=O)C1=NC=CC=C1","-","R946271","M1106801","-","-","2-sulphopyridine","-","Koerner","charochkina","A5793","-","-","-","1.75","Log unit","1.75","Log unit","n1c(S(=O)(=O)[O-])cccc1","5","","{n=[5]}","S(=O)(=O)([O-1])-c(ncc1)cc1","n","25.0","?C","","-","KZVLNAGYSAKYMG-UHFFFAOYSA"
"[O-]S(=O)(=O)C1=CN=CC=C1","-","R946272","M23053","-","-","3-sulphopyridine","-","Koerner","charochkina","A5793","-","-","-","2.9","Log unit","2.9","Log unit","n1cc(S(=O)(=O)[O-])ccc1","6","","{n=[6]}","S(=O)(=O)([O-1])-c(cnc1)cc1","n","25.0","?C","","-","DVECLMOWYVDJRM-UHFFFAOYSA"
"[O-]S(=O)(=O)C1=CC=NC=C1","-","R946273","M1106802","-","-","4-sulphopyridine","-","Koerner","charochkina","A5793","-","-","-","3.44","Log unit","3.44","Log unit","n1ccc(S(=O)(=O)[O-])cc1","7","","{n=[7]}","S(=O)(=O)([O-1])-c(ccn1)cc1","n","25.0","?C","","-","PTWLOSARXIJRRJ-UHFFFAOYSA"
"CC1=CC(C)=C(C)N=C1C","-","R946274","M28657","-","-","2,3,5,6-TETRAMETHYLPYRIDINE","-","Koerner","charochkina","A5793","-","-","-","7.9","Log unit","7.9","Log unit","n1c(c(cc(c1C)C)C)C","0","","{n=[0]}","n(c(c(c1)C)C)c(c1C)C","n","25.0","?C","","-","ZAAVUWIYUMVQJG-UHFFFAOYSA"
"CNC1=C(C)C(C)=NC(C)=C1C","-","R946275","M1106803","-","-","2,3,5,6-tetramethyl-4-methylaminopyridine","-","Koerner","charochkina","A5793","-","-","-","10.07","Log unit","10.07","Log unit","n1c(c(c(NC)c(c1C)C)C)C","0","","{n=[0], nr2=[4]}","n(c(c(c1NC)C)C)c(c1C)C","n","25.0","?C","","-","APKBVNABERDZNB-UHFFFAOYSA"
"BrC1=C(Br)C(Br)=C(Br)N=C1","-","R946276","M1106804","-","-","2,3,4,5-tetrabromopyridine","-","Koerner","charochkina","A5793","-","-","-","-2.47","Log unit","-2.47","Log unit","n1c(c(Br)c(Br)c(c1)Br)Br","4","","{n=[4]}","Br-c(c(Br)nc1)c(Br)c1Br","n","25.0","?C","","-","YQDVKKYOINDLOQ-UHFFFAOYSA"
"OC(=O)C1CC(C([NH2+]C1C([O-])=O)C([O-])=O)C(O)=O","-","R946277","M1107292","-","-","2,3,5,6-tetracarboxypyridine","-","Koerner","charochkina","A5793","-","-","-","2.84","Log unit","2.84","Log unit","OC(=O)C1C([NH2+]C(C([CH]1)C(=O)O)C(=O)[O-])C(=O)[O-]","8","","{co2h=[8, 13]}","[n+1]1c(C(=O)[O-1])c(C(=O)O)cc(C(=O)O)c1C(=O)[O-1]","co2h","25.0","?C","true","-","ONLZTLUZKNOIHF-UHFFFAOYSA"
"OC(=O)C1CC(C([NH2+]C1C([O-])=O)C([O-])=O)C([O-])=O","-","R946278","M1107292","-","-","2,3,5,6-tetracarboxypyridine","-","Koerner","charochkina","A5793","-","-","-","3.86","Log unit","3.86","Log unit","OC(=O)C1[CH]C(C([NH2+]C1C(=O)[O-])C(=O)[O-])C(=O)[O-]","13","","{co2h=[13]}","[n+1]1c(C(=O)[O-1])c(C(=O)[O-1])cc(C(=O)O)c1C(=O)[O-1]","co2h","25.0","?C","","-","ONLZTLUZKNOIHF-UHFFFAOYSA"
"OC(=O)C1=C(N=C(C([O-])=O)C(=C1)C([O-])=O)C([O-])=O","-","R946279","M1036572","-","-","2,3,5,6-tetracarboxypyridine","-","Koerner","charochkina","A5793","-","-","-","5.58","Log unit","5.58","Log unit","OC(=O)c1cc(c(nc1C(=O)[O-])C(=O)[O-])C(=O)[O-]","13","","{co2h=[13], n=[0]}","n1c(C(=O)[O-1])c(C(=O)[O-1])cc(C(=O)O)c1C(=O)[O-1]","co2h","25.0","?C","","-","JRDBISOHUUQXHE-UHFFFAOYSA"
"ClC1=CC(Cl)=C(Cl)N=C1Cl","-","R946280","M26799","-","-","2,3,5,6-TETRACHLOROPYRIDINE","-","Koerner","charochkina","A5793","-","-","-","-5.5","Log unit","-5.5","Log unit","n1c(Cl)c(Cl)cc(c1Cl)Cl","2","","{n=[2]}","Cl-c(nc(Cl)c1Cl)c(Cl)c1","n","25.0","?C","","-","FATBKZJZAHWCSL-UHFFFAOYSA"
"OC1=C(Cl)C(Cl)=NC(Cl)=C1Cl","-","R946281","M52302","-","-","2,3,5,6-tetrachloro-4-hydroxypyridine","-","Koerner","charochkina","A5793","-","-","-","-4.1","Log unit","-4.1","Log unit","n1c(Cl)c(Cl)c(c(c1Cl)Cl)O","2","","{n=[2], oh=[10]}","Cl-c(nc(Cl)c1Cl)c(Cl)c1O","n","25.0","?C","","-","RURNAQBVEXFRFC-UHFFFAOYSA"
"OC1=C(Cl)C(Cl)=NC(Cl)=C1Cl","-","R946282","M52302","-","-","2,3,5,6-tetrachloro-4-hydroxypyridine","-","Koerner","charochkina","A5793","-","-","-","2.0","Log unit","2.0","Log unit","Oc1c(c(Cl)nc(Cl)c1Cl)Cl","10","","{n=[2], oh=[10]}","Cl-c(nc(Cl)c1Cl)c(Cl)c1O","oh","25.0","?C","","-","RURNAQBVEXFRFC-UHFFFAOYSA"
"CC1=NC(C)=C(C)C(=C1C)N(=O)=O","-","R946283","M1106805","-","-","2,3,5,6-tetramethyl-4-nitropyridine","-","Koerner","charochkina","A5793","-","-","-","4.08","Log unit","4.08","Log unit","n1c(c(C)c(N(=O)=O)c(c1C)C)C","0","","{n=[0], nr2=[5]}","n(c(c(C)c1N(=O)=O)C)c(c1C)C","n","25.0","?C","","-","VFEQNPGZPIIDNH-UHFFFAOYSA"
"BrC1=C(Br)C(Br)=NC=C1","-","R946284","M1106806","-","-","2,3,4-tribromopyridine","-","Koerner","charochkina","A5793","-","-","-","-1.07","Log unit","-1.07","Log unit","n1c(Br)c(Br)c(cc1)Br","2","","{n=[2]}","Br-c(ncc1)c(Br)c1Br","n","25.0","?C","","-","USXXIRQDHZXYHX-UHFFFAOYSA"
"BrC1=CC=C(Br)C(Br)=N1","-","R946285","M1106807","-","-","2,3,6-tribromopyridine","-","Koerner","charochkina","A5793","-","-","-","-3.81","Log unit","-3.81","Log unit","n1c(Br)c(Br)ccc1Br","2","","{n=[2]}","Br-c(nc(Br)c1)c(Br)c1","n","25.0","?C","","-","DEFQJQYLAIGWAG-UHFFFAOYSA"
"BrC1=CC(Br)=NC(Br)=C1","-","R946286","M1106808","-","-","2,4,6-tribromopyridine","-","Koerner","charochkina","A5793","-","-","-","-3.36","Log unit","-3.36","Log unit","n1c(Br)cc(cc1Br)Br","2","","{n=[2]}","Br-c(nc(Br)c1)cc1Br","n","25.0","?C","","-","WALXYTCBNHJWER-UHFFFAOYSA"
"BrC1=CN=CC(Br)=C1Br","-","R946287","M1106809","-","-","3,4,5-tribromopyridine","-","Koerner","charochkina","A5793","-","-","-","0.45","Log unit","0.45","Log unit","n1cc(c(Br)c(Br)c1)Br","5","","{n=[5]}","Br-c(c(Br)cn1)c(Br)c1","n","25.0","?C","","-","CWYVUHWKGWQPLP-UHFFFAOYSA"
"COC1=C(Cl)C(Cl)=NC=C1Cl","-","R946288","M1106810","-","-","2,3,5-trichloro-4-methoxypyridine","-","Koerner","charochkina","A5793","-","-","-","-2.06","Log unit","-2.06","Log unit","n1c(Cl)c(Cl)c(c(c1)Cl)OC","2","","{n=[2]}","Cl-c(ncc1Cl)c(Cl)c1OC","n","25.0","?C","","-","PXTGHSCDDIDPPA-UHFFFAOYSA"
"CC1=CC(C)=NC(C)=C1","-","R946289","M18671","-","-","2,4,6-Trimethylpyridine","-","Koerner","charochkina","A5793","-","-","-","7.455","Log unit","7.455","Log unit","n1c(cc(C)cc1C)C","0","","{n=[0]}","n(c(cc1C)C)c(c1)C","n","25.0","?C","","-","BWZVCCNYKMEVEX-UHFFFAOYSA"
"C=CC1=CC=CC=N1","-","R946290","M18332","-","-","2-VINYLPYRIDINE","-","Koerner","charochkina","A5793","-","-","-","4.95","Log unit","4.95","Log unit","n1ccccc1C=C","0","","{n=[0]}","n(ccc1)c(c1)C=C","n","25.0","?C","","-","KGIGUEBEKRSTEW-UHFFFAOYSA"
"CC1=CC=C(C=CC2=CC=NC=C2)C=C1","-","R946291","M1106811","-","-","trans-4-p-methylstyryl-pyridine","-","Koerner","charochkina","A5793","-","-","-","5.94","Log unit","5.94","Log unit","n1ccc(C=Cc2ccc(C)cc2)cc1","0","","{n=[0]}","n(ccc1C=C-c(ccc2C)cc2)cc1","n","25.0","?C","","-","GQLIWGHJUSUIRN-UHFFFAOYSA"
"O=N(=O)C1=CN=CC=C1","-","R946292","M9228","-","-","3-nitro-pyridine","-","Koerner","charochkina","A5793","-","-","-","0.79","Log unit","0.79","Log unit","n1cccc(c1)N(=O)=O","0","","{n=[0], nr2=[6]}","n(ccc1)cc1N(=O)=O","n","25.0","?C","","-","QLILRKBRWXALIE-UHFFFAOYSA"
"O=N(=O)C1=CC(=CC=C1)C1=CC=NC=C1","-","R946293","M1106812","-","-","4-m-nitrophenyl-pyridine","-","Koerner","charochkina","A5793","-","-","-","4.9","Log unit","4.9","Log unit","n1ccc(c2cccc(c2)N(=O)=O)cc1","0","","{n=[0], nr2=[10]}","n(ccc1-c(ccc2)cc2N(=O)=O)cc1","n","25.0","?C","","-","AFVBDOPDKXFXTN-UHFFFAOYSA"
"O=N(=O)C1=CC=C(C=C1)C1=CC=NC=C1","-","R946294","M739095","-","-","4-p-nitrophenyl-pyridine","-","Koerner","charochkina","A5793","-","-","-","4.87","Log unit","4.87","Log unit","n1ccc(c2ccc(N(=O)=O)cc2)cc1","0","","{n=[0], nr2=[8]}","n(ccc1-c(ccc2N(=O)=O)cc2)cc1","n","25.0","?C","","-","XBXSGMVYJPSYLI-UHFFFAOYSA"
"O=N(=O)C1=CC=C(C=CC2=CC=NC=C2)C=C1","-","R946295","M1106813","-","-","trans-p-nitrostyryl-pyridine","-","Koerner","charochkina","A5793","-","-","-","5.15","Log unit","5.15","Log unit","n1ccc(C=Cc2ccc(N(=O)=O)cc2)cc1","0","","{n=[0], nr2=[10]}","n(ccc1C=C-c(ccc2N(=O)=O)cc2)cc1","n","25.0","?C","","-","YTSRULMQDDSWNN-UHFFFAOYSA"
"C1=CC=C(C=C1)C1=CN=CC=C1","-","R946296","M3861","-","-","3-phenyl-pyridine","-","Koerner","charochkina","A5793","-","-","-","4.8","Log unit","4.8","Log unit","n1cccc(c1)c1ccccc1","0","","{n=[0]}","n(ccc1)cc1-c(ccc2)cc2","n","25.0","?C","","-","HJKGBRPNSJADMB-UHFFFAOYSA"
"C1=CC=C(C=C1)C1=CC=NC=C1","-","R946297","M5312","-","-","4-Phenyl-pyridine","-","Koerner","charochkina","A5793","-","-","-","5.55","Log unit","5.55","Log unit","n1ccc(c2ccccc2)cc1","0","","{n=[0]}","n(ccc1-c(ccc2)cc2)cc1","n","25.0","?C","","-","JVZRCNQLWOELDU-UHFFFAOYSA"
"C1=CC=C(C=C1)N=NC1=CC=NC=C1","-","R946298","M27108","-","-","4-phenylazo-pyridine","-","Koerner","charochkina","A5793","-","-","-","3.5","Log unit","3.5","Log unit","n1ccc(N=Nc2ccccc2)cc1","0","","{n=[0]}","n(ccc1N=N-c(ccc2)cc2)cc1","n","25.0","?C","","-","STGZUKHALNSQAG-UHFFFAOYSA"
"C1=CC(=CN=C1)C1=CN=CC=C1","-","R946299","M21905","-","-","3-(3-pyridyl)-pyridine","-","Koerner","charochkina","A5793","-","-","-","4.6","Log unit","4.6","Log unit","n1cccc(c1)c1cnccc1","0","","{n=[0, 8]}","n(ccc1)cc1-c(cnc2)cc2","n","25.0","?C","true","-","OFDVABAUFQJWEZ-UHFFFAOYSA"
"C1=CC(=CN=C1)C1=CC=NC=C1","-","R946300","M1106814","-","-","3-(4-pyridyl)-pyridine","-","Koerner","charochkina","A5793","-","-","-","4.85","Log unit","4.85","Log unit","n1ccc(c2cnccc2)cc1","0","","{n=[0, 6]}","n(ccc1-c(cnc2)cc2)cc1","n","25.0","?C","true","-","YTEIHWVCQJZNEN-UHFFFAOYSA"
"C1=CC(=CC=N1)C1=CC=NC=C1","-","R946301","M7080","-","-","4-(4-pyridyl)-pyridine","-","Koerner","charochkina","A5793","-","-","-","4.82","Log unit","4.82","Log unit","n1ccc(c2ccncc2)cc1","0","","{n=[0, 7]}","n(ccc1-c(ccn2)cc2)cc1","n","25.0","?C","true","-","MWVTWFVJZLCBMC-UHFFFAOYSA"
"C(=CC1=CC=NC=C1)C1=CC=CC=C1","-","R946302","M105229","-","-","trans-4-styryl-pyridine","-","Koerner","charochkina","A5793","-","-","-","5.92","Log unit","5.92","Log unit","n1ccc(C=Cc2ccccc2)cc1","0","","{n=[0]}","n(ccc1C=C-c(ccc2)cc2)cc1","n","25.0","?C","","-","QKHRGPYNTXRMSL-UHFFFAOYSA"
"C=CC1=CC=NC=C1","-","R946303","M18322","-","-","4-vinyl-pyridine","-","Koerner","charochkina","A5793","-","-","-","5.62","Log unit","5.62","Log unit","n1ccc(C=C)cc1","0","","{n=[0]}","n(ccc1C=C)cc1","n","25.0","?C","","-","KFDVPJUYSDEJTH-UHFFFAOYSA"
"C1=CN=CC=N1","-","R946304","M5986","-","-","Pyrazine","-","Koerner","charochkina","A5793","-","-","-","0.8","Log unit","0.8","Log unit","n1ccncc1","0","","{n=[0, 3]}","n(ccn1)cc1","n","25.0","?C","true","-","KYQCOXFCLRTKLS-UHFFFAOYSA"
"CNC1=C(N=CC=N1)C(N)=N","-","R946305","M1106815","-","-","Pyrazine, 2-amidino-3-methylamino-","-","Koerner","charochkina","A5793","-","-","-","8.96","Log unit","8.96","Log unit","C(=N)(c1c(nccn1)NC)N","8","","{neth=[8], n=[0, 3], nr2=[5, 10]}","n(ccn1)c(NC)c1C(=N)N","neth","25.0","?C","","-","DNRRCMOUVPFSTE-UHFFFAOYSA"
"CS(=O)(=O)C1=NC=CN=C1","-","R946306","M1106816","-","-","2-methylsulphonylpyrazine","-","Koerner","charochkina","A5793","-","-","-","-2.47","Log unit","-2.47","Log unit","n1c(S(=O)(=O)C)cncc1","5","","{n=[5, 9]}","S(=O)(=O)(C)-c(ncc1)cn1","n","25.0","?C","true","-","HJPSMYFBAYHGOP-UHFFFAOYSA"
"SC1CNCC[NH2+]1","-","R946307","M1107293","-","-","2-mercaptopyrazine","-","Koerner","charochkina","A5793","-","-","-","-0.73","Log unit","-0.73","Log unit","SC1[NH2+][CH][CH]N[CH]1","0","","{sh=[0]}","S-c([n+1]cc1)cn1","sh","25.0","?C","","-","UGVLNNKFPPHEDT-UHFFFAOYSA"
"COC1CCC(S)[NH2+]N1","-","R946308","M1107294","-","-","3-methoxy-6-mercaptopyridazine","-","Koerner","charochkina","A5793","-","-","-","-2.36","Log unit","-2.36","Log unit","SC1[NH2+]NC(OC)[CH][CH]1","0","","{sh=[0]}","S-c([n+1]nc1OC)cc1","sh","25.0","?C","","-","CZJAICOSRCOJFE-UHFFFAOYSA"
"C1=CN=NC=C1","-","R946309","M8428","-","-","pyridazine","-","Koerner","charochkina","A5793","-","-","-","2.6","Log unit","2.6","Log unit","n1ncccc1","0","","{n=[0, 1]}","n(ncc1)cc1","n","25.0","?C","true","-","PBMFSQRYOILNGV-UHFFFAOYSA"
"COC1=CC=C(OC)N=N1","-","R946310","M1106817","-","-","3,6-dimethoxypyridazine","-","Koerner","charochkina","A5793","-","-","-","1.31","Log unit","1.31","Log unit","n1nc(OC)ccc1OC","0","","{n=[0, 1]}","n(nc(OC)c1)c(OC)c1","n","25.0","?C","true","-","HKQOBAGKDBSVEQ-UHFFFAOYSA"
"CC1=CC=C(C)N=N1","-","R946311","M1106818","-","-","2,6-dimethylpyridazine","-","Koerner","charochkina","A5793","-","-","-","3.69","Log unit","3.69","Log unit","n1nc(ccc1C)C","0","","{n=[0, 1]}","n(nc(c1)C)c(c1)C","n","25.0","?C","true","-","BGVTUIRPHLSMJU-UHFFFAOYSA"
"SC1CCCN[NH2+]1","-","R946312","M1107295","-","-","3-mercaptopyridazine","-","Koerner","charochkina","A5793","-","-","-","-2.68","Log unit","-2.68","Log unit","SC1[NH2+]N[CH][CH][CH]1","0","","{sh=[0]}","S-c([n+1]nc1)cc1","sh","25.0","?C","","-","IEZOQHHLONKUNS-UHFFFAOYSA"
"CC1=C(C)C(C)=C(C)N=N1","-","R946313","M1106819","-","-","3,4,5,6-tetramethylpyridazine","-","Koerner","charochkina","A5793","-","-","-","5.06","Log unit","5.06","Log unit","n1nc(C)c(C)c(c1C)C","0","","{n=[0, 1]}","n(nc(C)c1C)c(C)c1C","n","25.0","?C","true","-","GHAPXTSQLKUQLE-UHFFFAOYSA"
"C1=CN=CN=C1","-","R946314","M1783","-","-","pyrimidine","-","Koerner","charochkina","A5793","-","-","-","0.93","Log unit","0.93","Log unit","n1cnccc1","0","","{n=[0, 2]}","n(cnc1)cc1","n","25.0","?C","true","-","CZPWVGJYEJSRLH-UHFFFAOYSA"
"NC1=NC=CC=N1","-","R946315","M6216","-","-","2-Aminopyrimidine","-","Koerner","charochkina","A5793","-","-","-","3.3","Log unit","3.3","Log unit","n1cccnc1N","0","","{n=[0, 5], nr2=[6]}","n(ccc1)c(n1)N","n","25.0","?C","true","-","LJXQPZWIHJMPQQ-UHFFFAOYSA"