Smiles,CASRN,Record ID,Molecule ID,External ID,N,Name,Introducer,Modifer,Article ID,PUBMED ID,PAGE,TABLE,pKa,pKa Unit,Temperature,Temperature Unit,Ionizable center smiles,IC group
[NH3+]S(O)(=O)=O,-,R936887,M30088,-,-,Sulphamic acid,Koerner,charochkina,A5793,-,-,-,1,Log unit,25,?C,OS(=O)(=O)[NH3+],{so3h=4}
OS(=O)(=O)C1=CC=CC2=C1C=CC=C2,-,R936888,M17774,-,-,alphanaphthylsulfonic acid,Koerner,charochkina,A5793,-,-,-,0.68,Log unit,25,?C,OS(=O)(=O)c1cccc2c1cccc2,{so3h=3}
OS(=O)(=O)C1=CC=CC2=C1C(=O)C1=CC=CC=C1C2=O,-,R936889,M50687,-,-,ANTHRAQUINONE-1-SULFONIC ACID,Koerner,charochkina,A5793,-,-,-,0.27,Log unit,25,?C,OS(=O)(=O)c1cccc2c1C(=O)c1ccccc1C2=O,{so3h=3}
OS(=O)(=O)C1=CC=C2C(=O)C3=CC=CC=C3C(=O)C2=C1,-,R936890,M50698,-,-,Anthraquinone-2-sulfonic acid,Koerner,charochkina,A5793,-,-,-,0.38,Log unit,25,?C,OS(=O)(=O)c1ccc2C(=O)c3ccccc3C(=O)c2c1,{so3h=3}
OP(O)(O)=O,-,R936891,M32130,-,-,Phosphonic acid,Koerner,charochkina,A5793,-,-,-,2.12,Log unit,25,?C,OP(=O)(O)O,{po2h=2}
OP(O)([O-])=O,-,R936892,M32130,-,-,Phosphonic acid,Koerner,charochkina,A5793,-,-,-,7.21,Log unit,25,?C,OP(=O)([O-])O,{po2h=3}
OP([O-])([O-])=O,-,R936893,M32130,-,-,Phosphonic acid,Koerner,charochkina,A5793,-,-,-,12.67,Log unit,25,?C,OP(=O)([O-])[O-],{po2h=4}
NP(O)(O)=O,-,R936894,M218523,-,-,Amidophosphoric acid,Koerner,charochkina,A5793,-,-,-,3,Log unit,25,?C,OP(=O)(N)O,{po2h=3}
NP(O)([O-])=O,-,R936895,M218523,-,-,Amidophosphoric acid,Koerner,charochkina,A5793,-,-,-,8.15,Log unit,25,?C,OP(=O)(N)[O-],{po2h=3}
COP(O)(O)=O,-,R936896,M23666,-,-,Methyl dihydrogen phosphate,Koerner,charochkina,A5793,-,-,-,1.53,Log unit,25,?C,OP(=O)(O)OC,{po2h=2}
COP(O)([O-])=O,-,R936897,M23666,-,-,Methyl dihydrogen phosphate,Koerner,charochkina,A5793,-,-,-,6.5,Log unit,25,?C,OP(=O)([O-])OC,{po2h=2}
OP(O)(=O)CP(O)(O)=O,-,R936898,M26060,-,-,Methylenediphosphonic acid,Koerner,charochkina,A5793,-,-,-,2,Log unit,25,?C,OP(=O)(O)CP(=O)(O)O,{po2h=2}
OP(O)(=O)CP(O)([O-])=O,-,R936899,M26060,-,-,Methylenediphosphonic acid,Koerner,charochkina,A5793,-,-,-,2.3,Log unit,25,?C,OP(=O)([O-])CP(=O)(O)O,{po2h=3}
OP([O-])(=O)CP(O)([O-])=O,-,R936900,M26060,-,-,Methylenediphosphonic acid,Koerner,charochkina,A5793,-,-,-,7.4,Log unit,25,?C,OP(=O)([O-])CP(=O)(O)[O-],{po2h=3}
OP(=O)C(F)(F)F,-,R936901,M1034273,-,-,trifluoromethylsulphonous acid,Koerner,charochkina,A5793,-,-,-,1.01,Log unit,25,?C,OP(=O)C(F)(F)F,{po2h=6}
CC(=O)OP(O)(O)=O,-,R936902,M1012062,-,-,acetyldihydrogenphosphate,Koerner,charochkina,A5793,-,-,-,1.2,Log unit,25,?C,OP(=O)(O)OC(=O)C,{po2h=2}
CP(C)(O)=O,-,R936903,M28051,-,-,Dimethylphosphinic acid,Koerner,charochkina,A5793,-,-,-,3.13,Log unit,25,?C,OP(=O)(C)C,{po2h=2}
OCC(CO)OP(O)(O)=O,-,R936904,M51342,-,-,glycerin-2-phosphoricester,Koerner,charochkina,A5793,-,-,-,1.262,Log unit,25,?C,OP(=O)(O)OC(CO)CO,{po2h=2}
OCC(CO)OP(O)([O-])=O,-,R936905,M51342,-,-,glycerin-2-phosphoricester,Koerner,charochkina,A5793,-,-,-,6.6,Log unit,25,?C,OP(=O)([O-])OC(CO)CO,{po2h=2}
OCC1OC(OP(O)(O)=O)C(O)C(O)C1O,-,R936906,M17206,-,-,galactose-1-phosphoric acid,Koerner,charochkina,A5793,-,-,-,1,Log unit,25,?C,OP(=O)(O)OC1OC(C(O)C(C1O)O)CO,{po2h=2}
OCC1OC(OP(O)([O-])=O)C(O)C(O)C1O,-,R936907,M17206,-,-,galactose-1-phosphoric acid,Koerner,charochkina,A5793,-,-,-,6.2,Log unit,25,?C,OP(=O)([O-])OC1OC(C(O)C(C1O)O)CO,{po2h=2}
NCCOP(O)([O-])=O,-,R936908,M24436,-,-,ethylamino-1-phosphoric acid,Koerner,charochkina,A5793,-,-,-,5.8,Log unit,25,?C,OP(=O)(OCCN)[O-],{po2h=6}
CP(O)(O)=O,-,R936909,M24251,-,-,methyl-phosphoric acid,Koerner,charochkina,A5793,-,-,-,2.365,Log unit,25,?C,OP(=O)(O)C,{po2h=2}
CP(O)([O-])=O,-,R936910,M24251,-,-,methyl-phosphoric acid,Koerner,charochkina,A5793,-,-,-,7.5,Log unit,25,?C,OP(=O)([O-])C,{po2h=3}
CCP(O)(O)=O,-,R936911,M122650,-,-,Ethylphosphonic acid,Koerner,charochkina,A5793,-,-,-,2.45,Log unit,25,?C,OP(=O)(O)CC,{po2h=2}
CCP(O)([O-])=O,-,R936912,M122650,-,-,Ethylphosphonic acid,Koerner,charochkina,A5793,-,-,-,7.9,Log unit,25,?C,OP(=O)([O-])CC,{po2h=2}
CCCP(O)(O)=O,-,R936913,M29592,-,-,n-propylphosphonic acid,Koerner,charochkina,A5793,-,-,-,2.49,Log unit,25,?C,OP(=O)(O)CCC,{po2h=2}
CCCP(O)([O-])=O,-,R936914,M29592,-,-,n-propylphosphonic acid,Koerner,charochkina,A5793,-,-,-,8.18,Log unit,25,?C,OP(=O)([O-])CCC,{po2h=2}
CC(C)P(O)(O)=O,-,R936915,M1034274,-,-,iso-propylphosphoric acid,Koerner,charochkina,A5793,-,-,-,2.66,Log unit,25,?C,OP(=O)(O)C(C)C,{po2h=2}
CC(C)P(O)([O-])=O,-,R936916,M1034274,-,-,iso-propylphosphoric acid,Koerner,charochkina,A5793,-,-,-,8.44,Log unit,25,?C,OP(=O)([O-])C(C)C,{po2h=2}
CCCCP(O)(O)=O,-,R936917,M1034275,-,-,n-butyl-1-phosphonic acid,Koerner,charochkina,A5793,-,-,-,2.59,Log unit,25,?C,OP(=O)(O)CCCC,{po2h=2}
CCCCP(O)([O-])=O,-,R936918,M1034275,-,-,n-butyl-1-phosphonic acid,Koerner,charochkina,A5793,-,-,-,8.19,Log unit,25,?C,OP(=O)([O-])CCCC,{po2h=2}
CCC(C)P(O)(O)=O,-,R936919,M1034276,-,-,n-butyl-2-phosphonic acid,Koerner,charochkina,A5793,-,-,-,2.74,Log unit,25,?C,OP(=O)(O)C(C)CC,{po2h=2}
CCC(C)P(O)([O-])=O,-,R936920,M1034276,-,-,n-butyl-2-phosphonic acid,Koerner,charochkina,A5793,-,-,-,8.48,Log unit,25,?C,OP(=O)([O-])C(C)CC,{po2h=2}
CC(C)CP(O)(O)=O,-,R936921,M1034277,-,-,iso-butylphosphonic acid,Koerner,charochkina,A5793,-,-,-,2.7,Log unit,25,?C,OP(=O)(O)CC(C)C,{po2h=2}
CC(C)CP(O)([O-])=O,-,R936922,M1034277,-,-,iso-butylphosphonic acid,Koerner,charochkina,A5793,-,-,-,8.43,Log unit,25,?C,OP(=O)([O-])CC(C)C,{po2h=2}
CC(C)(C)P(O)(O)=O,-,R936923,M58222,-,-,tert.-butylphosphonic acid,Koerner,charochkina,A5793,-,-,-,2.79,Log unit,25,?C,OP(=O)(O)C(C)(C)C,{po2h=2}
CC(C)(C)P(O)([O-])=O,-,R936924,M58222,-,-,tert.-butylphosphonic acid,Koerner,charochkina,A5793,-,-,-,8.88,Log unit,25,?C,OP(=O)([O-])C(C)(C)C,{po2h=2}
CC(C)(C)CP(O)(O)=O,-,R936925,M1034278,-,-,neopentylphosphonic acid,Koerner,charochkina,A5793,-,-,-,2.84,Log unit,25,?C,OP(=O)(O)CC(C)(C)C,{po2h=2}
CC(C)(C)CP(O)([O-])=O,-,R936926,M1034278,-,-,neopentylphosphonic acid,Koerner,charochkina,A5793,-,-,-,8.65,Log unit,25,?C,OP(=O)([O-])CC(C)(C)C,{po2h=2}
CCC(C)(C)P(O)(O)=O,-,R936927,M1034279,-,-,tert.-amylphosphonic acid,Koerner,charochkina,A5793,-,-,-,2.88,Log unit,25,?C,OP(=O)(O)C(C)(C)CC,{po2h=2}
CCC(C)(C)P(O)([O-])=O,-,R936928,M1034279,-,-,tert.-amylphosphonic acid,Koerner,charochkina,A5793,-,-,-,8.96,Log unit,25,?C,OP(=O)([O-])C(C)(C)CC,{po2h=2}
CCCCCCP(O)(O)=O,-,R936929,M1034280,-,-,n-hexylphosphonic acid,Koerner,charochkina,A5793,-,-,-,2.5,Log unit,25,?C,OP(=O)(O)CCCCCC,{po2h=2}
CCCCCCP(O)([O-])=O,-,R936930,M1034280,-,-,n-hexylphosphonic acid,Koerner,charochkina,A5793,-,-,-,7.9,Log unit,25,?C,OP(=O)([O-])CCCCCC,{po2h=2}
CCCCCCP(O)([O-])=O,-,R936931,M1034280,-,-,n-docdecylphosphonic acid,Koerner,charochkina,A5793,-,-,-,8.25,Log unit,25,?C,OP(=O)([O-])CCCCCC,{po2h=2}
OP(O)(=O)CCl,-,R936932,M71508,-,-,monochloromethylphosphonic acid,Koerner,charochkina,A5793,-,-,-,1.4,Log unit,25,?C,OP(=O)(CCl)O,{po2h=4}
OP([O-])(=O)CCl,-,R936933,M71508,-,-,monochloromethylphosphonic acid,Koerner,charochkina,A5793,-,-,-,6.3,Log unit,25,?C,OP(=O)(CCl)[O-],{po2h=5}
OP(O)(=O)C(Cl)Cl,-,R936934,M1034281,-,-,dichloromethylphosphonic acid,Koerner,charochkina,A5793,-,-,-,1.14,Log unit,25,?C,OP(=O)(C(Cl)Cl)O,{po2h=5}
OP([O-])(=O)C(Cl)Cl,-,R936935,M1034281,-,-,dichloromethylphosphonic acid,Koerner,charochkina,A5793,-,-,-,5.61,Log unit,25,?C,OP(=O)(C(Cl)Cl)[O-],{po2h=6}
OP(O)(=O)CBr,-,R936936,M1034282,-,-,monobromomethylphosphonic acid,Koerner,charochkina,A5793,-,-,-,1.14,Log unit,25,?C,OP(=O)(CBr)O,{po2h=4}
OP([O-])(=O)CBr,-,R936937,M1034282,-,-,monobromomethylphosphonic acid,Koerner,charochkina,A5793,-,-,-,6.52,Log unit,25,?C,OP(=O)(CBr)[O-],{po2h=5}
OP(O)(=O)CI,-,R936938,M1034283,-,-,monoiodomethylphosphonic acid,Koerner,charochkina,A5793,-,-,-,1.3,Log unit,25,?C,OP(=O)(CI)O,{po2h=4}
OP([O-])(=O)CI,-,R936939,M1034283,-,-,monoiodomethylphosphonic acid,Koerner,charochkina,A5793,-,-,-,6.72,Log unit,25,?C,OP(=O)(CI)[O-],{po2h=5}
OCP(O)(O)=O,-,R936940,M71599,-,-,Hydroxymethylphosphonic acid,Koerner,charochkina,A5793,-,-,-,1.91,Log unit,25,?C,OP(=O)(O)CO,{po2h=2}
OCP(O)([O-])=O,-,R936941,M71599,-,-,Hydroxymethylphosphonic acid,Koerner,charochkina,A5793,-,-,-,7.15,Log unit,25,?C,OP(=O)([O-])CO,{po2h=3}
[NH3+]CP(O)(O)=O,-,R936942,M184882,-,-,AMINOMETHYLPHOSPHONIC ACID,Koerner,charochkina,A5793,-,-,-,1.85,Log unit,25,?C,OP(=O)(O)C[NH3+],{po2h=2}
[NH3+]CP(O)([O-])=O,-,R936943,M184882,-,-,AMINOMETHYLPHOSPHONIC ACID,Koerner,charochkina,A5793,-,-,-,5.35,Log unit,25,?C,OP(=O)([O-])C[NH3+],{po2h=2}
NCP([O-])([O-])=O,-,R936944,M184882,-,-,AMINOMETHYLPHOSPHONIC ACID,Koerner,charochkina,A5793,-,-,-,10.8,Log unit,25,?C,NCP(=O)([O-])[O-],{nr2=5}
[NH3+]CCP(O)(O)=O,-,R936945,M70595,-,-,2-aminoethylphosphonic acid,Koerner,charochkina,A5793,-,-,-,2.45,Log unit,25,?C,OP(=O)(O)CC[NH3+],{po2h=2}
[NH3+]CCP(O)([O-])=O,-,R936946,M70595,-,-,2-aminoethylphosphonic acid,Koerner,charochkina,A5793,-,-,-,7,Log unit,25,?C,OP(=O)([O-])CC[NH3+],{po2h=3}
NCCP([O-])([O-])=O,-,R936947,M70595,-,-,2-aminoethylphosphonic acid,Koerner,charochkina,A5793,-,-,-,10.8,Log unit,25,?C,NCCP(=O)([O-])[O-],{nr2=6}
[NH3+]CCCCP(O)(O)=O,-,R936948,M752145,-,-,4-amino-n-butylphosphonic acid,Koerner,charochkina,A5793,-,-,-,2.55,Log unit,25,?C,OP(=O)(O)CCCC[NH3+],{po2h=2}
[NH3+]CCCCP(O)([O-])=O,-,R936949,M752145,-,-,4-amino-n-butylphosphonic acid,Koerner,charochkina,A5793,-,-,-,7.55,Log unit,25,?C,OP(=O)([O-])CCCC[NH3+],{po2h=2}
NCCCCP(O)([O-])=O,-,R936950,M752145,-,-,4-amino-n-butylphosphonic acid,Koerner,charochkina,A5793,-,-,-,10.9,Log unit,25,?C,NCCCCP(=O)(O)[O-],{nr2=8}
[NH3+]CCCCCP(O)(O)=O,-,R936951,M1034284,-,-,5-amino-n-pentylphosphonic acid,Koerner,charochkina,A5793,-,-,-,2.6,Log unit,25,?C,OP(=O)(O)CCCCC[NH3+],{po2h=2}
[NH3+]CCCCCP(O)([O-])=O,-,R936952,M1034284,-,-,5-amino-n-pentylphosphonic acid,Koerner,charochkina,A5793,-,-,-,7.6,Log unit,25,?C,OP(=O)([O-])CCCCC[NH3+],{po2h=2}
NCCCCCP([O-])([O-])=O,-,R936953,M1034284,-,-,5-amino-n-pentylphosphonic acid,Koerner,charochkina,A5793,-,-,-,11,Log unit,25,?C,NCCCCCP(=O)([O-])[O-],{nr2=9}
[NH3+]CCCCCCCCCCP(O)([O-])=O,-,R936954,M1034285,-,-,10-amino-n-decyllphosphonic acid,Koerner,charochkina,A5793,-,-,-,8,Log unit,25,?C,OP(=O)([O-])CCCCCCCCCC[NH3+],{po2h=2}
NCCCCCCCCCCP([O-])([O-])=O,-,R936955,M1034285,-,-,5-amino-n-decylphosphonic acid,Koerner,charochkina,A5793,-,-,-,11.25,Log unit,25,?C,NCCCCCCCCCCP(=O)([O-])[O-],{nr2=14}
OP([O-])(=O)CCCNC1=CC=CC=C1,-,R936956,M1050534,-,-,3-phenylamino-n-propyl-phosphonic acid,Koerner,charochkina,A5793,-,-,-,4.25,Log unit,25,?C,N(c1ccccc1)CCCP(=O)(O)[O-],{nr2=6}
CC1=CC(=C(C)C=C1O)C(C)(C)C,-,R936757,M34268,-,-,"4-butyl-2,5-dimethyl-phenol",Koerner,charochkina,A5793,-,-,-,10.74,Log unit,25,?C,Oc1cc(C)c(C(C)(C)C)cc1C,{oh=0}
CC1=CC(C)=C(O)C(=C1)C(C)(C)C,-,R936758,M8143,-,-,"2-tert-butyl-4,6-dimethyl-phenol",Koerner,charochkina,A5793,-,-,-,12.04,Log unit,25,?C,Oc1c(cc(C)cc1C(C)(C)C)C,{oh=0}
CC(C)C1=CC=CC(C(C)C)=C1O,-,R936759,M8041,-,-,"2,6-diisopropyl-phenol",Koerner,charochkina,A5793,-,-,-,11.1,Log unit,25,?C,Oc1c(cccc1C(C)C)C(C)C,{oh=4}
CCCC1=CC=C(O)C(CCC)=C1,-,R936760,M1050495,-,-,"2,4-dipropyl-phenol",Koerner,charochkina,A5793,-,-,-,10.91,Log unit,25,?C,Oc1ccc(CCC)cc1CCC,{oh=0}
CCCC1=CC=CC(CCC)=C1O,-,R936761,M31351,-,-,"2,6-Dipropyl-phenol",Koerner,charochkina,A5793,-,-,-,11.25,Log unit,25,?C,Oc1c(cccc1CCC)CCC,{oh=4}
CCC1=C(C)C(=CC=C1O)C(C)C,-,R936762,M1050496,-,-,2-ethyl-4-isopropyl-3-methyl phenol,Koerner,charochkina,A5793,-,-,-,10.85,Log unit,25,?C,Oc1ccc(C(C)C)c(c1CC)C,{oh=0}
CCC1=C(C)C=C(O)C(=C1)C(C)C,-,R936763,M1050497,-,-,4-ethyl-2-isopropyl-5-methyl-phenol,Koerner,charochkina,A5793,-,-,-,10.91,Log unit,25,?C,Oc1cc(c(CC)cc1C(C)C)C,{oh=0}
CCCCCCC1=CC=CC=C1O,-,R936764,M1050498,-,-,2-hexyl-phenol,Koerner,charochkina,A5793,-,-,-,10.66,Log unit,25,?C,Oc1ccccc1CCCCCC,{oh=12}
OC1=C(C=C(C=C1C1=CC=CC=C1)N(=O)=O)N(=O)=O,-,R936765,M23470,-,-,"3,5-dinitro-biphenyl-2-ol",Koerner,charochkina,A5793,-,-,-,3.848,Log unit,25,?C,Oc1c(c2ccccc2)cc(cc1N(=O)=O)N(=O)=O,{oh=12}
OC1=CC=CC=C1C1=CC=C(Br)C=C1,-,R936766,M1050499,-,-,4'-bromo-biphenyl-2-ol,Koerner,charochkina,A5793,-,-,-,10.96,Log unit,25,?C,Oc1c(c2ccc(Br)cc2)cccc1,{oh=10}
OC1=CC=CC=C1C1=CC=C(I)C=C1,-,R936767,M1050500,-,-,4'-iodo-biphenyl-2-ol,Koerner,charochkina,A5793,-,-,-,10.92,Log unit,25,?C,Oc1c(c2ccc(I)cc2)cccc1,{oh=10}
OC1=CC=CC=C1C1=CC=C(C=C1)N(=O)=O,-,R936768,M1050501,-,-,4'-nitro-biphenyl-2-ol,Koerner,charochkina,A5793,-,-,-,10.42,Log unit,25,?C,Oc1ccccc1c1ccc(N(=O)=O)cc1,{oh=0}
OC1=C(C=C(C=C1)C1=CC=CC=C1)N(=O)=O,-,R936769,M15024,-,-,3-nitro-biphenyl-4-ol,Koerner,charochkina,A5793,-,-,-,6.73,Log unit,25,?C,Oc1c(cc(c2ccccc2)cc1)N(=O)=O,{oh=13}
OC1=C(C=CC(=C1)C1=CC=CC=C1)N(=O)=O,-,R936770,M34365,-,-,3-nitro-biphenyl-4-ol,Koerner,charochkina,A5793,-,-,-,6.73,Log unit,25,?C,Oc1cc(c2ccccc2)ccc1N(=O)=O,{oh=9}
NC1=CC=C(C=C1)C1=CC=CC=C1O,-,R936771,M1050502,-,-,4'-amino-biphenyl-2-ol,Koerner,charochkina,A5793,-,-,-,11.4,Log unit,25,?C,Oc1ccccc1c1ccc(N)cc1,{oh=0}
CC(=O)NC1=CC(O)=CC2=C1C=CC=C2,-,R936772,M1050503,-,-,N-(3-hydroxy-1-napthyl)-acetamid,Koerner,charochkina,A5793,-,-,-,9.3,Log unit,25,?C,Oc1cc(NC(=O)C)c2ccccc2c1,{oh=7}
CC(=O)NC1=CC2=C(C=CC=C2)C(O)=C1,-,R936773,M1050504,-,-,N-(4-hydroxy-2-napthyl)-acetamid,Koerner,charochkina,A5793,-,-,-,8.87,Log unit,25,?C,Oc1cc(cc2ccccc12)NC(=O)C,{oh=8}
COC1=CC=CC=C1C1=CC=CC=C1O,-,R936774,M1050505,-,-,2'-methoxy-biphenyl-2-ol,Koerner,charochkina,A5793,-,-,-,10.4,Log unit,25,?C,Oc1ccccc1c1ccccc1OC,{oh=0}
COC1=CC=C(C=C1)C1=CC=CC=C1O,-,R936775,M1050506,-,-,4'-methoxy-biphenyl-2-ol,Koerner,charochkina,A5793,-,-,-,11.38,Log unit,25,?C,Oc1ccccc1c1ccc(OC)cc1,{oh=0}
OC1=CC=CC=C1CC1=CC=CC=C1[O-],-,R936776,M71345,-,-,2-(2-hydroxybenzyl)-phenol,Koerner,charochkina,A5793,-,-,-,11.3,Log unit,25,?C,Oc1ccccc1Cc1ccccc1[O-],{oh=0}
OC1=CC=C(CC2=CC=CC=C2[O-])C=C1,-,R936777,M71346,-,-,2-(4-hydroxybenzyl)-phenol,Koerner,charochkina,A5793,-,-,-,10.6,Log unit,25,?C,Oc1ccc(Cc2ccccc2[O-])cc1,{oh=0}
CC(=O)C1=CC(=CC=C1)C1=CC=CC=C1O,-,R936778,M1050507,-,-,3'-acetyl-biphenyl-2-ol,Koerner,charochkina,A5793,-,-,-,10.91,Log unit,25,?C,Oc1ccccc1c1cccc(c1)C(=O)C,{oh=0}
CC(=O)C1=CC=C(C=C1)C1=CC=CC=C1O,-,R936779,M1050508,-,-,4'-acetyl-biphenyl-2-ol,Koerner,charochkina,A5793,-,-,-,10.78,Log unit,25,?C,Oc1ccccc1c1ccc(C(=O)C)cc1,{oh=0}
CCOC1=CC=C(C=C1)C1=CC=CC=C1O,-,R936780,M1050509,-,-,4'-ethoxy-biphenyl-2-ol,Koerner,charochkina,A5793,-,-,-,11.39,Log unit,25,?C,Oc1ccccc1c1ccc(OCC)cc1,{oh=0}
CC(C)(C)C1=CC=C(O)C(=C1)C(C)(C)C,-,R936781,M18186,-,-,"2,4-Di-tert-butyl-phenol",Koerner,charochkina,A5793,-,-,-,11.64,Log unit,25,?C,Oc1ccc(C(C)(C)C)cc1C(C)(C)C,{oh=0}
CC(C)(C)C1=CC=CC(=C1O)C(C)(C)C,-,R936782,M19304,-,-,"2,6-Di-tert-butyl-phenol",Koerner,charochkina,A5793,-,-,-,11.7,Log unit,25,?C,Oc1c(cccc1C(C)(C)C)C(C)(C)C,{oh=0}
CC(C)(C)C1=CC(=CC(O)=C1)C(C)(C)C,-,R936783,M14045,-,-,"3,5-Di-tert-butyl-phenol",Koerner,charochkina,A5793,-,-,-,10.29,Log unit,25,?C,Oc1cc(cc(c1)C(C)(C)C)C(C)(C)C,{oh=0}
CC(C)(C)C1=CC(Br)=CC(=C1O)C(C)(C)C,-,R936784,M68772,-,-,"4-bromo-2,6-di-tert-butyl-phenol",Koerner,charochkina,A5793,-,-,-,10.83,Log unit,25,?C,Oc1c(cc(Br)cc1C(C)(C)C)C(C)(C)C,{oh=5}
CC(C)(C)C1=CC(O)=CC(=C1C([O-])=O)C(C)(C)C,-,R936785,M1050510,-,-,"3,5-di-tert-butyl-4-hydroxy-benzoic acid",Koerner,charochkina,A5793,-,-,-,10.8,Log unit,25,?C,Oc1cc(C(C)(C)C)c(C(=O)[O-])c(C(C)(C)C)c1,{oh=1}
CC1=CC(=C(O)C(=C1)C(C)(C)C)C(C)(C)C,-,R936786,M7417,-,-,"2,6-Di-tert-butyl-4-methyl-phenol",Koerner,charochkina,A5793,-,-,-,12.23,Log unit,25,?C,Oc1c(cc(C)cc1C(C)(C)C)C(C)(C)C,{oh=0}
CCCC1=CC(CCC)=C(O)C(CCC)=C1,-,R936787,M1050511,-,-,"2,4,6-tripropyl-phenol",Koerner,charochkina,A5793,-,-,-,11.59,Log unit,25,?C,Oc1c(cc(CCC)cc1CCC)CCC,{oh=0}
COC1=CC(=C(O)C(=C1)C(C)(C)C)C(C)(C)C,-,R936788,M66556,-,-,"2,6-di-tert-butyl-4-methoxy-phenol",Koerner,charochkina,A5793,-,-,-,12.15,Log unit,25,?C,Oc1c(cc(OC)cc1C(C)(C)C)C(C)(C)C,{oh=0}
CCOC(=O)C1=CC(=C(O)C(=C1)C(C)(C)C)C(C)(C)C,-,R936789,M1050512,-,-,"2,6-di-tert-butyl-4-ethoxycarbonyl-phenol",Koerner,charochkina,A5793,-,-,-,9.5,Log unit,25,?C,Oc1c(cc(C(=O)OCC)cc1C(C)(C)C)C(C)(C)C,{oh=0}
CC(C)(C)C1=CC(=C(O)C(=C1)C(C)(C)C)C(C)(C)C,-,R936790,M8506,-,-,"2,4,6-tri-tert-butyl-phenol",Koerner,charochkina,A5793,-,-,-,12.19,Log unit,25,?C,Oc1c(cc(C(C)(C)C)cc1C(C)(C)C)C(C)(C)C,{oh=0}
OC1=CC=C(C2=C1C=CC=C2)S([O-])(=O)=O,-,R936791,M17752,-,-,4-Hydroxy-1-naphthalenesulfonic acid,Koerner,charochkina,A5793,-,-,-,8.32,Log unit,25,?C,Oc1ccc(S(=O)(=O)[O-])c2ccccc12,{oh=8}
OC1=CC=CC2=C1C=CC=C2S([O-])(=O)=O,-,R936792,M18952,-,-,5-hydroxy-1-naphthalenesulfonic acid,Koerner,charochkina,A5793,-,-,-,9.11,Log unit,25,?C,Oc1c2cccc(S(=O)(=O)[O-])c2ccc1,{oh=10}
OC1=CC2=C(C=C1)C(=CC=C2)S([O-])(=O)=O,-,R936793,M132743,-,-,7-hydroxy-1-naphthalenesulfonic acid,Koerner,charochkina,A5793,-,-,-,9.48,Log unit,25,?C,Oc1cc2cccc(S(=O)(=O)[O-])c2cc1,{oh=11}
OC1=CC=CC2=C1C(=CC=C2)S([O-])(=O)=O,-,R936794,M65466,-,-,7-hydroxy-1-naphthalenesulfonic acid,Koerner,charochkina,A5793,-,-,-,13.02,Log unit,25,?C,Oc1cccc2cccc(S(=O)(=O)[O-])c12,{oh=13}
OC1=C(C=CC2=C1C=CC=C2)S([O-])(=O)=O,-,R936795,M21818,-,-,1-hydroxy-2-naphthalenesulfonic acid,Koerner,charochkina,A5793,-,-,-,9.47,Log unit,25,?C,Oc1c(S(=O)(=O)[O-])ccc2ccccc12,{oh=1}
OC1=CC(=CC2=C1C=CC=C2)S([O-])(=O)=O,-,R936796,M28690,-,-,4-Hydroxy-2-naphthalenesulfonic acid,Koerner,charochkina,A5793,-,-,-,8.5,Log unit,25,?C,Oc1cc(cc2ccccc12)S(=O)(=O)[O-],{oh=8}
OC1=CC2=C(C=C1)C=C(C=C2)S([O-])(=O)=O,-,R936797,M18045,-,-,6-HYDROXY-2-NAPHTHALENESULFONIC ACID,Koerner,charochkina,A5793,-,-,-,9.13,Log unit,25,?C,Oc1cc2ccc(cc2cc1)S(=O)(=O)[O-],{oh=11}
OC1=CC2=C(C=C1)C=CC(=C2)S([O-])(=O)=O,-,R936798,M65122,-,-,7-Hydroxy-2-naphthalenesulfonic acid,Koerner,charochkina,A5793,-,-,-,9.35,Log unit,25,?C,Oc1ccc2ccc(cc2c1)S(=O)(=O)[O-],{oh=12}
OC1=CC2=C(C=CC(=C2)S([O-])(=O)=O)C=C1[O-],-,R936799,M65119,-,-,"6,7-Dihydroxy-2-naphthalenesulfonic acid",Koerner,charochkina,A5793,-,-,-,11.85,Log unit,25,?C,Oc1c(cc2ccc(cc2c1)S(=O)(=O)[O-])[O-],{oh=13}
OC1=CC2=C(C=C1)C=C(C=C2S([O-])(=O)=O)S([O-])(=O)=O,-,R936800,M18972,-,-,"7-Hydroxy-1,3-naphthalenedisulfonic acid",Koerner,charochkina,A5793,-,-,-,9,Log unit,25,?C,Oc1ccc2cc(cc(S(=O)(=O)[O-])c2c1)S(=O)(=O)[O-],{oh=16}
OC1=CC2=C(C=CC=C2S([O-])(=O)=O)C(=C1)S([O-])(=O)=O,-,R936801,M1050513,-,-,"386 3-hydroxy-1,5-naphthalenedisulfonic acid",Koerner,charochkina,A5793,-,-,-,8.7,Log unit,20,?C,Oc1cc(S(=O)(=O)[O-])c2cccc(c2c1)S(=O)(=O)[O-],{oh=7}
OC1=CC=C(C2=C1C=C(C=C2)S([O-])(=O)=O)S([O-])(=O)=O,-,R936802,M1050514,-,-,"386 4-hydroxy-1,6-naphthalenedisulfonic acid",Koerner,charochkina,A5793,-,-,-,7.6,Log unit,20,?C,Oc1ccc(S(=O)(=O)[O-])c2ccc(cc12)S(=O)(=O)[O-],{oh=8}
OC1=CC2=C(C=C(C=C2)S([O-])(=O)=O)C=C1S([O-])(=O)=O,-,R936803,M19675,-,-,"387 3-hydroxy-2,7-naphthalenedisulfonic acid",Koerner,charochkina,A5793,-,-,-,9.6,Log unit,20,?C,Oc1c(cc2cc(ccc2c1)S(=O)(=O)[O-])S(=O)(=O)[O-],{oh=7}
OC1=CC(=CC2=C1C=CC(=C2)S([O-])(=O)=O)S([O-])(=O)=O,-,R936804,M66998,-,-,"387 4-hydroxy-2,7-naphthalenedisulfonic acid",Koerner,charochkina,A5793,-,-,-,8.64,Log unit,20,?C,Oc1cc(cc2cc(ccc12)S(=O)(=O)[O-])S(=O)(=O)[O-],{oh=8}
OC1=CC=C(C=C1)N=NC1=CC=CC=C1C([O-])=O,-,R936805,M141867,-,-,2-carboxy-4'-hydroxyazobenzene,Koerner,charochkina,A5793,-,-,-,8.2,Log unit,25,?C,Oc1ccc(N=Nc2ccccc2C(=O)[O-])cc1,{oh=0}
OC1=CC=C(C=C1)N=NC1=CC=C(C=C1)C([O-])=O,-,R936806,M1013305,-,-,4-carboxy-4'-hydroxy-azobenzene,Koerner,charochkina,A5793,-,-,-,7.9,Log unit,25,?C,Oc1ccc(N=Nc2ccc(cc2)C(=O)[O-])cc1,{oh=15}
OC1=CC=C(C=C1)N=NC1=CC=CC=C1,-,R936807,M25601,-,-,4-hydroxy-azobenzene,Koerner,charochkina,A5793,-,-,-,-0.93,Log unit,25,?C,Oc1ccc(N=Nc2ccccc2)cc1,{oh=12}
OC1=CC=C(C=C1)N=NC1=CC=CC=C1,-,R936808,M25601,-,-,4-hydroxy-azobenzene,Koerner,charochkina,A5793,-,-,-,8.2,Log unit,25,?C,Oc1ccc(N=Nc2ccccc2)cc1,{oh=12}
OC1=C(C=C(C=C1)N=NC1=CC(=CC=C1)N(=O)=O)C([O-])=O,-,R936809,M1000716,-,-,2-hydroxy-5-(3-nitrophenylazo)benzoic acid,Koerner,charochkina,A5793,-,-,-,11.23,Log unit,25,?C,Oc1c(C(=O)[O-])cc(cc1)N=Nc1cc(N(=O)=O)ccc1,{oh=5}