Smiles,CASRN,Record ID,Molecule ID,External ID,N,Name,Introducer,Modifer,Article ID,PUBMED ID,PAGE,TABLE,pKa,pKa Unit,Temperature,Temperature Unit,Ionizable center smiles,IC group
CC1=CC=C(C(O)=O)C(Cl)=C1,-,R936288,M1050362,-,-,2-chloro-4-methyl-benzoic acid,Koerner,charochkina,A5793,-,-,-,3.27,Log unit,25,?C,OC(=O)c1c(Cl)cc(cc1)C,"{co2h=10, aliphatic_carboxylic_acid=10}"
CC1=CC=C(Cl)C(=C1)C(O)=O,-,R936289,M111365,-,-,2-chloro-5-methyl-benzoic acid,Koerner,charochkina,A5793,-,-,-,3.12,Log unit,25,?C,OC(=O)c1c(Cl)ccc(C)c1,"{co2h=10, aliphatic_carboxylic_acid=10}"
CC1=C(C(O)=O)C(Cl)=CC=C1,-,R936290,M35247,-,-,2-CHLORO-6-METHYL-BENZOIC ACID,Koerner,charochkina,A5793,-,-,-,2.75,Log unit,25,?C,OC(=O)c1c(Cl)cccc1C,"{co2h=10, aliphatic_carboxylic_acid=10}"
CC1=C(C=CC=C1Cl)C(O)=O,-,R936291,M32024,-,-,3-chloro-2-methyl-benzoic acid,Koerner,charochkina,A5793,-,-,-,3.43,Log unit,25,?C,OC(=O)c1c(c(Cl)ccc1)C,"{co2h=10, aliphatic_carboxylic_acid=10}"
CC1=CC=C(C=C1Cl)C(O)=O,-,R936292,M29960,-,-,3-chloro-4-methyl-benzoic acid,Koerner,charochkina,A5793,-,-,-,4.06,Log unit,25,?C,OC(=O)c1cc(Cl)c(cc1)C,"{co2h=7, aliphatic_carboxylic_acid=7}"
CC1=CC=C(Cl)C=C1C(O)=O,-,R936293,M751743,-,-,5-chloro-2-methyl-benzoic acid,Koerner,charochkina,A5793,-,-,-,3.63,Log unit,25,?C,OC(=O)c1cc(Cl)ccc1C,"{co2h=10, aliphatic_carboxylic_acid=10}"
CC1=CC(Cl)=CC=C1C(O)=O,-,R936294,M111946,-,-,4-chloro-2-methyl-benzoic acid,Koerner,charochkina,A5793,-,-,-,3.75,Log unit,25,?C,OC(=O)c1ccc(Cl)cc1C,"{co2h=7, aliphatic_carboxylic_acid=7}"
CC1=CC(=CC=C1Cl)C(O)=O,-,R936295,M111993,-,-,4-chloro-3-methyl-benzoic acid,Koerner,charochkina,A5793,-,-,-,4.07,Log unit,25,?C,OC(=O)c1ccc(Cl)c(c1)C,"{co2h=7, aliphatic_carboxylic_acid=7}"
CC1=C(Br)C(=CC=C1)C(O)=O,-,R936296,M134397,-,-,2-bromo-3-methyl-benzoic Acid,Koerner,charochkina,A5793,-,-,-,2.9,Log unit,25,?C,OC(=O)c1c(Br)c(ccc1)C,"{co2h=10, aliphatic_carboxylic_acid=10}"
CC1=CC=C(C(O)=O)C(Br)=C1,-,R936297,M1050363,-,-,2-bromo-4-methyl-benozic acid,Koerner,charochkina,A5793,-,-,-,3.09,Log unit,25,?C,OC(=O)c1c(Br)cc(cc1)C,"{co2h=10, aliphatic_carboxylic_acid=10}"
CC1=CC=C(Br)C(=C1)C(O)=O,-,R936298,M1050364,-,-,2-bromo-5-methyl-benzoic acid,Koerner,charochkina,A5793,-,-,-,3,Log unit,25,?C,OC(=O)c1c(Br)ccc(C)c1,"{co2h=10, aliphatic_carboxylic_acid=10}"
CC1=C(C(O)=O)C(Br)=CC=C1,-,R936299,M1050365,-,-,2-bromo-6-methyl-benzoic acid,Koerner,charochkina,A5793,-,-,-,2.71,Log unit,25,?C,OC(=O)c1c(Br)cccc1C,"{co2h=10, aliphatic_carboxylic_acid=10}"
CC1=C(C=CC=C1Br)C(O)=O,-,R936300,M1050366,-,-,3-bromo-2-methyl-benzoic acid,Koerner,charochkina,A5793,-,-,-,3.36,Log unit,25,?C,OC(=O)c1c(c(Br)ccc1)C,"{co2h=10, aliphatic_carboxylic_acid=10}"
CC1=CC=C(C=C1Br)C(O)=O,-,R936301,M79020,-,-,3-bromo-4-methyl-benzoic acid,Koerner,charochkina,A5793,-,-,-,3.96,Log unit,25,?C,OC(=O)c1cc(Br)c(cc1)C,"{co2h=7, aliphatic_carboxylic_acid=7}"
CC1=CC=C(Br)C=C1C(O)=O,-,R936302,M1050367,-,-,3-bromo-6-methyl-benzoic acid,Koerner,charochkina,A5793,-,-,-,3.58,Log unit,25,?C,OC(=O)c1cc(Br)ccc1C,"{co2h=10, aliphatic_carboxylic_acid=10}"
CC1=CC(Br)=CC=C1C(O)=O,-,R936303,M98613,-,-,4-BROMO-2-METHYL-BENZOIC ACID,Koerner,charochkina,A5793,-,-,-,3.77,Log unit,25,?C,OC(=O)c1ccc(Br)cc1C,"{co2h=7, aliphatic_carboxylic_acid=7}"
CC1=CC(=CC=C1Br)C(O)=O,-,R936304,M79021,-,-,4-bromo-3-methyl-benzoic acid,Koerner,charochkina,A5793,-,-,-,4.03,Log unit,25,?C,OC(=O)c1ccc(Br)c(c1)C,"{co2h=7, aliphatic_carboxylic_acid=7}"
CC1=C(I)C(=CC=C1)C(O)=O,-,R936305,M1050368,-,-,2-iodo-3-methyl-benzoic acid,Koerner,charochkina,A5793,-,-,-,2.92,Log unit,25,?C,OC(=O)c1c(I)c(ccc1)C,"{co2h=10, aliphatic_carboxylic_acid=10}"
CC1=CC=C(C(O)=O)C(I)=C1,-,R936306,M1050369,-,-,2-iodo-4-methyl-benzoic acid,Koerner,charochkina,A5793,-,-,-,3.2,Log unit,25,?C,OC(=O)c1c(I)cc(cc1)C,"{co2h=10, aliphatic_carboxylic_acid=10}"
CC1=CC=C(I)C(=C1)C(O)=O,-,R936307,M110840,-,-,2-iodo-5-methyl-benzoic acid,Koerner,charochkina,A5793,-,-,-,2.95,Log unit,25,?C,OC(=O)c1c(I)ccc(C)c1,"{co2h=10, aliphatic_carboxylic_acid=10}"
CC1=C(C(O)=O)C(I)=CC=C1,-,R936308,M1050370,-,-,2-iodo-6-methyl-benzoic acid,Koerner,charochkina,A5793,-,-,-,2.7,Log unit,25,?C,OC(=O)c1c(I)cccc1C,"{co2h=10, aliphatic_carboxylic_acid=10}"
CC1=C(C=CC=C1I)C(O)=O,-,R936309,M1050371,-,-,3-iodo-2-methyl-benzoic acid,Koerner,charochkina,A5793,-,-,-,3.26,Log unit,25,?C,OC(=O)c1c(c(I)ccc1)C,"{co2h=10, aliphatic_carboxylic_acid=10}"
CC1=CC=C(I)C=C1C(O)=O,-,R936310,M1050372,-,-,5-iodo-2-methyl-benzoic acid,Koerner,charochkina,A5793,-,-,-,3.62,Log unit,25,?C,OC(=O)c1cc(I)ccc1C,"{co2h=10, aliphatic_carboxylic_acid=10}"
CC1=CC(I)=CC=C1C(O)=O,-,R936311,M1050373,-,-,4-iodo-2-methyl-benzoic acid,Koerner,charochkina,A5793,-,-,-,3.79,Log unit,25,?C,OC(=O)c1ccc(I)cc1C,"{co2h=7, aliphatic_carboxylic_acid=7}"
OC(=O)CC1=CC(F)=CC=C1,-,R936312,M13466,-,-,2-(3-fluorophenyl)-acetic acid,Koerner,charochkina,A5793,-,-,-,4.13,Log unit,25,?C,OC(=O)Cc1cc(F)ccc1,"{co2h=10, aliphatic_carboxylic_acid=10}"
OC(C(O)=O)C1=CC=CC=C1Cl,-,R936313,M112566,-,-,2-(2-chlorophenyl)-2-hydroxy-acetic acid,Koerner,charochkina,A5793,-,-,-,3.31,Log unit,25,?C,OC(=O)C(c1c(Cl)cccc1)O,"{co2h=11, aliphatic_carboxylic_acid=11}"
OC(C(O)=O)C1=CC=C(Cl)C=C1,-,R936314,M66579,-,-,2-(4-chlorophenyl)-2-hydroxy-acetic acid,Koerner,charochkina,A5793,-,-,-,3.15,Log unit,25,?C,OC(=O)C(c1ccc(Cl)cc1)O,"{co2h=9, aliphatic_carboxylic_acid=9}"
OC(C(O)=O)C1=CC=CC=C1Br,-,R936315,M1050374,-,-,2-(2-bromophenyl)-2-hydroxy-acetic acid,Koerner,charochkina,A5793,-,-,-,3.32,Log unit,25,?C,OC(=O)C(c1c(Br)cccc1)O,"{co2h=11, aliphatic_carboxylic_acid=11}"
OC(C(O)=O)C1=CC=C(Br)C=C1,-,R936316,M31545,-,-,2-(4-bromophenyl)-2-hydroxy-acetic acid,Koerner,charochkina,A5793,-,-,-,3.105,Log unit,25,?C,OC(=O)C(c1ccc(Br)cc1)O,"{co2h=9, aliphatic_carboxylic_acid=9}"
OC(C(O)=O)C1=CC=C(I)C=C1,-,R936317,M1050375,-,-,2-hydroxy-2-(4-iodophenyl)-acetic acid,Koerner,charochkina,A5793,-,-,-,3.14,Log unit,25,?C,OC(=O)C(c1ccc(I)cc1)O,"{co2h=9, aliphatic_carboxylic_acid=9}"
OC(C(O)=O)C1=CC=CC=C1F,-,R936318,M1016073,-,-,2-(2-fluorophenyl)-2-hydroxy-acetic acid,Koerner,charochkina,A5793,-,-,-,3.3,Log unit,25,?C,OC(=O)C(c1c(F)cccc1)O,"{co2h=11, aliphatic_carboxylic_acid=11}"
OC(C(O)=O)C1=CC=C(F)C=C1,-,R936319,M66264,-,-,2-(4-fluorophenyl)-2-hydroxy-acetic acid,Koerner,charochkina,A5793,-,-,-,3.19,Log unit,25,?C,OC(=O)C(c1ccc(F)cc1)O,"{co2h=9, aliphatic_carboxylic_acid=9}"
CCCCC1=CC=C(C=C1)C(O)C(O)=O,-,R936320,M1050376,-,-,2-(4-butyrylphenyl)-2-hydroxy-acetic acid,Koerner,charochkina,A5793,-,-,-,3.58,Log unit,25,?C,OC(=O)C(c1ccc(cc1)CCCC)O,"{co2h=8, aliphatic_carboxylic_acid=8}"
CC1=C(C=CC=C1C(O)=O)N(=O)=O,-,R936321,M70490,-,-,2-methyl-3-nitro-benzoic acid,Koerner,charochkina,A5793,-,-,-,2.98,Log unit,25,?C,OC(=O)c1cccc(c1C)N(=O)=O,"{co2h=12, aliphatic_carboxylic_acid=12}"
CC1=C(C=C(C=C1)N(=O)=O)C(O)=O,-,R936322,M70492,-,-,2-Methyl-5-nitro-benzoic acid,Koerner,charochkina,A5793,-,-,-,3.23,Log unit,25,?C,OC(=O)c1c(ccc(c1)N(=O)=O)C,"{co2h=12, aliphatic_carboxylic_acid=12}"
CC1=C(C(O)=O)C(=CC=C1)N(=O)=O,-,R936323,M114296,-,-,2-methyl-6-nitro-benzoic acid,Koerner,charochkina,A5793,-,-,-,2.4,Log unit,25,?C,OC(=O)c1c(cccc1N(=O)=O)C,"{co2h=7, aliphatic_carboxylic_acid=7}"
CC1=C(C(=CC=C1)C(O)=O)N(=O)=O,-,R936324,M75463,-,-,3-methyl-2-nitro-benzoic acid,Koerner,charochkina,A5793,-,-,-,2.91,Log unit,25,?C,OC(=O)c1cccc(C)c1N(=O)=O,"{co2h=12, aliphatic_carboxylic_acid=12}"
CC1=C(C=CC(=C1)C(O)=O)N(=O)=O,-,R936325,M72407,-,-,3-METHYL-4-NITRO-BENZOIC ACID,Koerner,charochkina,A5793,-,-,-,3.65,Log unit,25,?C,OC(=O)c1ccc(c(c1)C)N(=O)=O,"{co2h=6, aliphatic_carboxylic_acid=6}"
CC1=CC(C(O)=O)=C(C=C1)N(=O)=O,-,R936326,M72408,-,-,5-methyl-2-nitro-benzoic acid,Koerner,charochkina,A5793,-,-,-,2.55,Log unit,25,?C,OC(=O)c1c(ccc(c1)C)N(=O)=O,"{co2h=9, aliphatic_carboxylic_acid=9}"
CC1=CC(=C(C=C1)C(O)=O)N(=O)=O,-,R936327,M987756,-,-,4-methyl-2-nitro-benzoic acid,Koerner,charochkina,A5793,-,-,-,2.68,Log unit,25,?C,OC(=O)c1ccc(cc1N(=O)=O)C,"{co2h=9, aliphatic_carboxylic_acid=9}"
CC1=C(C=C(C=C1)C(O)=O)N(=O)=O,-,R936328,M65203,-,-,4-METHYL-3-NITRO-BENZOIC ACID,Koerner,charochkina,A5793,-,-,-,3.62,Log unit,25,?C,OC(=O)c1ccc(C)c(c1)N(=O)=O,"{co2h=6, aliphatic_carboxylic_acid=6}"
COC1=C(C=CC(=C1)N(=O)=O)C(O)=O,-,R936329,M71569,-,-,2-methoxy-4-nitro-benzoic acid,Koerner,charochkina,A5793,-,-,-,3.11,Log unit,25,?C,OC(=O)c1ccc(cc1OC)N(=O)=O,"{co2h=8, aliphatic_carboxylic_acid=8}"
COC1=C(O)C(=CC(=C1)N(=O)=O)C(O)=O,-,R936330,M1050377,-,-,2-hydroxy-4-methoxy-5-nitro-benzoic acid,Koerner,charochkina,A5793,-,-,-,2.58,Log unit,25,?C,OC(=O)c1c(O)c(cc(N(=O)=O)c1)OC,"{co2h=14, aliphatic_carboxylic_acid=14}"
COC1=C(O)C(=CC(=C1)C(O)=O)N(=O)=O,-,R936331,M1050378,-,-,4-hydroxy-3-methoxy-5-nitro-benzoic acid,Koerner,charochkina,A5793,-,-,-,4.12,Log unit,25,?C,OC(=O)c1cc(c(O)c(c1)N(=O)=O)OC,"{co2h=7, aliphatic_carboxylic_acid=7}"
CCC1=C(C(O)=C(C=C1N(=O)=O)N(=O)=O)N(=O)=O,-,R936332,M1050379,-,-,"3-ethyl-2,4,6-trinitro-phenol",Koerner,charochkina,A5793,-,-,-,1,Log unit,25,?C,Oc1c(cc(N(=O)=O)c(c1N(=O)=O)CC)N(=O)=O,{oh=0}
OC(=O)CS(=O)(=O)C1=CC=CC(Br)=C1,-,R936333,M1050380,-,-,2-(3-bromophenyl)sulfonyl-acetic acid,Koerner,charochkina,A5793,-,-,-,2.523,Log unit,25,?C,OC(=O)CS(=O)(=O)c1cc(Br)ccc1,"{co2h=10, aliphatic_carboxylic_acid=10}"
OC(=O)CS(=O)(=O)C1=CC=C(Br)C=C1,-,R936334,M1050381,-,-,2-(4-bromophenyl)sulfonyl-acetic acid,Koerner,charochkina,A5793,-,-,-,2.519,Log unit,25,?C,OC(=O)CS(=O)(=O)c1ccc(Br)cc1,"{co2h=11, aliphatic_carboxylic_acid=11}"
OC(=O)CS(=O)(=O)C1=CC=CC(F)=C1,-,R936335,M1050382,-,-,2-(3-fluorophenyl)sufonyl-acetic acid,Koerner,charochkina,A5793,-,-,-,2.432,Log unit,25,?C,OC(=O)CS(=O)(=O)c1cc(F)ccc1,"{co2h=10, aliphatic_carboxylic_acid=10}"
OC(=O)CS(=O)(=O)C1=CC=C(F)C=C1,-,R936336,M1050383,-,-,2-(4-fluorophenyl)sulfonyl-acetic acid,Koerner,charochkina,A5793,-,-,-,2.479,Log unit,25,?C,OC(=O)CS(=O)(=O)c1ccc(F)cc1,"{co2h=11, aliphatic_carboxylic_acid=11}"
OC(=O)CS(=O)(=O)C1=CC=CC(=C1)N(=O)=O,-,R936337,M1050384,-,-,2-(3-nitrophenyl)sulfonyl-acetic acid,Koerner,charochkina,A5793,-,-,-,2.362,Log unit,25,?C,OC(=O)CS(=O)(=O)c1cccc(c1)N(=O)=O,"{co2h=6, aliphatic_carboxylic_acid=6}"
OC(=O)CS(=O)(=O)C1=CC=C(C=C1)N(=O)=O,-,R936338,M1050385,-,-,2-(4-nitrophenyl)sulfonyl-acetic acid,Koerner,charochkina,A5793,-,-,-,2.33,Log unit,25,?C,OC(=O)CS(=O)(=O)c1ccc(N(=O)=O)cc1,"{co2h=6, aliphatic_carboxylic_acid=6}"
OC(=O)C1=CC(C(O)=O)=C(C=C1O)C(O)=O,-,R936339,M1050386,-,-,"5-hydroxy-1,2,4-benzenetricarboxylic acid",Koerner,charochkina,A5793,-,-,-,1.86,Log unit,25,?C,OC(=O)c1c(cc(O)c(c1)C(=O)O)C(=O)O,"{co2h=7, aliphatic_carboxylic_acid=7}"
OC(=O)C1=C(C=C(C([O-])=O)C(O)=C1)C(O)=O,-,R936340,M1050386,-,-,"5-hydroxy-1,2,4-benzenetricarboxylic acid",Koerner,charochkina,A5793,-,-,-,3.4,Log unit,25,?C,OC(=O)c1c(cc(O)c(c1)C(=O)[O-])C(=O)O,"{co2h=7, aliphatic_carboxylic_acid=7}"
OC(=O)C1=C(C=C(O)C(=C1)C([O-])=O)C([O-])=O,-,R936341,M1050386,-,-,"5-hydroxy-1,2,4-benzenetricarboxylic acid",Koerner,charochkina,A5793,-,-,-,5.3,Log unit,25,?C,OC(=O)c1c(cc(O)c(c1)C(=O)[O-])C(=O)[O-],"{co2h=7, aliphatic_carboxylic_acid=7}"
OC(=O)C1=CC(C(O)=O)=C(O)C(=C1)C(O)=O,-,R936342,M22379,-,-,"2-hydroxy-1,3,5-benzenetricarboxylic acid",Koerner,charochkina,A5793,-,-,-,3.07,Log unit,25,?C,OC(=O)c1cc(c(O)c(c1)C(=O)O)C(=O)O,"{co2h=7, aliphatic_carboxylic_acid=7}"
OC(=O)C1=CC(C(O)=O)=C(O)C(=C1)C([O-])=O,-,R936343,M22379,-,-,"2-hydroxy-1,3,5-benzenetricarboxylic acid",Koerner,charochkina,A5793,-,-,-,3.93,Log unit,25,?C,OC(=O)c1cc(c(O)c(c1)C(=O)[O-])C(=O)O,"{co2h=7, aliphatic_carboxylic_acid=7}"
OC(=O)C1=CC(C([O-])=O)=C(O)C(=C1)C([O-])=O,-,R936344,M22379,-,-,"2-hydroxy-1,3,5-benzenetricarboxylic acid",Koerner,charochkina,A5793,-,-,-,4.88,Log unit,25,?C,OC(=O)c1cc(c(O)c(c1)C(=O)[O-])C(=O)[O-],"{co2h=7, aliphatic_carboxylic_acid=7}"
COC1=CC(OC)=C(C(O)=O)C(OC)=C1,-,R936345,M66965,-,-,"2,4,6-trimethoxy-benzoic acid",Koerner,charochkina,A5793,-,-,-,3.59,Log unit,25,?C,OC(=O)c1c(cc(cc1OC)OC)OC,"{co2h=14, aliphatic_carboxylic_acid=14}"
CC(=O)C1=CC=CC=C1C(O)=O,-,R936346,M21878,-,-,2-acetyl-benzoic acid,Koerner,charochkina,A5793,-,-,-,4.123,Log unit,25,?C,OC(=O)c1ccccc1C(=O)C,"{co2h=11, aliphatic_carboxylic_acid=11}"
CC(=O)C1=CC=CC(=C1)C(O)=O,-,R936347,M48632,-,-,3-acetyl-benzoic acid,Koerner,charochkina,A5793,-,-,-,3.827,Log unit,25,?C,OC(=O)c1cccc(c1)C(=O)C,"{co2h=6, aliphatic_carboxylic_acid=6}"
CC(=O)C1=CC=C(C=C1)C(O)=O,-,R936348,M21971,-,-,4-acetyl-benzoic acid,Koerner,charochkina,A5793,-,-,-,3.7,Log unit,25,?C,OC(=O)c1ccc(cc1)C(=O)C,"{co2h=11, aliphatic_carboxylic_acid=11}"
OC(=O)C=CC1=CC=C(O)C=C1,-,R936349,M20970,-,-,3-(4-hydroxyphenyl)propenoic acid,Koerner,charochkina,A5793,-,-,-,4.64,Log unit,25,?C,OC(=O)C=Cc1ccc(O)cc1,"{co2h=9, aliphatic_carboxylic_acid=9}"
CC1=CC(C(O)=O)=C(C=C1)C(O)=O,-,R936350,M74063,-,-,"4-Methyl-1,2-benzenedicarboxylic acid",Koerner,charochkina,A5793,-,-,-,3.04,Log unit,25,?C,OC(=O)c1c(ccc(c1)C)C(=O)O,"{co2h=6, aliphatic_carboxylic_acid=6}"
OC(=O)C=CC1=CC=C(O)C=C1O,-,R936351,M1050387,-,-,"3-(2,4-dihydroxyphenyl)-propenoic acid",Koerner,charochkina,A5793,-,-,-,4.1,Log unit,25,?C,OC(=O)C=Cc1ccc(O)cc1O,"{co2h=9, aliphatic_carboxylic_acid=9}"
OC(=O)C=CC1=CC(O)=CC=C1O,-,R936352,M1050388,-,-,"3-(2,5-dihydroxyphenyl)-propenoic acid",Koerner,charochkina,A5793,-,-,-,3.69,Log unit,25,?C,OC(=O)C=Cc1cc(O)ccc1O,"{co2h=12, aliphatic_carboxylic_acid=12}"
OC(=O)C=CC1=CC=C(O)C(O)=C1,-,R936353,M20035,-,-,"3-(3,4-dihydroxyphenyl)-propenoic acid",Koerner,charochkina,A5793,-,-,-,4.555,Log unit,25,?C,OC(=O)C=Cc1ccc(O)c(O)c1,"{co2h=9, aliphatic_carboxylic_acid=9}"
COC1=CC(C(O)=O)=C(C=C1)C(O)=O,-,R936354,M70347,-,-,"4-methoxy-1,2-benzenedicarboxylic acid",Koerner,charochkina,A5793,-,-,-,3,Log unit,25,?C,OC(=O)c1c(ccc(c1)OC)C(=O)O,"{co2h=6, aliphatic_carboxylic_acid=6}"
COC1=CC(C(O)=O)=C(C=C1)C([O-])=O,-,R936355,M70347,-,-,"4-methoxy-1,2-benzenedicarboxylic acid",Koerner,charochkina,A5793,-,-,-,4.9,Log unit,25,?C,OC(=O)c1c(ccc(c1)OC)C(=O)[O-],"{co2h=6, aliphatic_carboxylic_acid=6}"
CC1=C(O)C(C(O)=O)=C(C)C=C1,-,R936356,M1050389,-,-,"2-hydroxy-3,6-dimethyl-benzoic acid",Koerner,charochkina,A5793,-,-,-,3.23,Log unit,25,?C,OC(=O)c1c(ccc(c1O)C)C,"{co2h=7, aliphatic_carboxylic_acid=7}"
CC(O)(C(O)=O)C1=CC=CC=C1,-,R936157,M21134,-,-,alpha-phenyl-alpha-hydroxy-propionic acid,Koerner,charochkina,A5793,-,-,-,3.53,Log unit,25,?C,OC(=O)C(c1ccccc1)(O)C,"{co2h=8, aliphatic_carboxylic_acid=8}"
OC(CC(O)=O)C1=CC=CC=C1,-,R936158,M746841,-,-,Beta-phenyl-Beta-hydroxy-propionic acid,Koerner,charochkina,A5793,-,-,-,4.39,Log unit,25,?C,OC(=O)CC(c1ccccc1)O,"{co2h=11, aliphatic_carboxylic_acid=11}"
OC(=O)C(O)(C1=CC=CC=C1)C1=CC=CC=C1,-,R936159,M11153,-,-,benzilic acid,Koerner,charochkina,A5793,-,-,-,3.05,Log unit,25,?C,OC(=O)C(c1ccccc1)(O)c1ccccc1,"{co2h=14, aliphatic_carboxylic_acid=14}"
OC(=O)C=CC1=C(O)C=CC=C1,-,R936160,M22482,-,-,o-hydroxy-cinnamic acid,Koerner,charochkina,A5793,-,-,-,4.6,Log unit,25,?C,OC(=O)C=Cc1c(O)cccc1,"{co2h=5, aliphatic_carboxylic_acid=5}"
OC(=O)C=CC1=CC(O)=CC=C1,-,R936161,M36471,-,-,m-hydroxy-cinnamic acid,Koerner,charochkina,A5793,-,-,-,4.395,Log unit,25,?C,OC(=O)C=Cc1cc(O)ccc1,"{co2h=5, aliphatic_carboxylic_acid=5}"
OC(=O)CC1=CC=CC=C1N(=O)=O,-,R936162,M73349,-,-,o-Nitrophenylacetic acid,Koerner,charochkina,A5793,-,-,-,4,Log unit,25,?C,OC(=O)Cc1ccccc1N(=O)=O,"{co2h=7, aliphatic_carboxylic_acid=7}"
OC(=O)CC1=CC=CC(=C1)N(=O)=O,-,R936163,M12619,-,-,m-nitrophenyl-acetic acid,Koerner,charochkina,A5793,-,-,-,3.96,Log unit,25,?C,OC(=O)Cc1cccc(c1)N(=O)=O,"{co2h=12, aliphatic_carboxylic_acid=12}"
OC(=O)CC1=CC=C(C=C1)N(=O)=O,-,R936164,M13397,-,-,p-nitrophenyl-acetic acid,Koerner,charochkina,A5793,-,-,-,3.924,Log unit,25,?C,OC(=O)Cc1ccc(cc1)N(=O)=O,"{co2h=7, aliphatic_carboxylic_acid=7}"
OC(=O)CC1=C(C=C(C=C1)N(=O)=O)N(=O)=O,-,R936165,M23122,-,-,"2,4-dinitrophenyl-acetic acid",Koerner,charochkina,A5793,-,-,-,3.5,Log unit,25,?C,OC(=O)Cc1ccc(cc1N(=O)=O)N(=O)=O,"{co2h=10, aliphatic_carboxylic_acid=10}"
OC(=O)CCC1=CC=CC=C1N(=O)=O,-,R936166,M70523,-,-,b-(o-nitrophenyl)-propionic acid,Koerner,charochkina,A5793,-,-,-,4.5,Log unit,25,?C,OC(=O)CCc1ccccc1N(=O)=O,"{co2h=8, aliphatic_carboxylic_acid=8}"
OC(=O)CCC1=CC=C(C=C1)N(=O)=O,-,R936167,M124329,-,-,b-(p-nitrophenyl)-propionic acid,Koerner,charochkina,A5793,-,-,-,4.505,Log unit,25,?C,OC(=O)CCc1ccc(cc1)N(=O)=O,"{co2h=8, aliphatic_carboxylic_acid=8}"
OC(=O)C=CC1=CC=CC=C1N(=O)=O,-,R936168,M22439,-,-,o-nitro-cinnamic acid,Koerner,charochkina,A5793,-,-,-,4.15,Log unit,25,?C,OC(=O)C=Cc1ccccc1N(=O)=O,"{co2h=8, aliphatic_carboxylic_acid=8}"
OC(=O)C=CC1=CC=CC(=C1)N(=O)=O,-,R936169,M21692,-,-,m-nitro-cinnamic acid,Koerner,charochkina,A5793,-,-,-,4.12,Log unit,25,?C,OC(=O)C=Cc1cccc(c1)N(=O)=O,"{co2h=13, aliphatic_carboxylic_acid=13}"
OC(=O)C=CC1=CC=C(C=C1)N(=O)=O,-,R936170,M22618,-,-,p-nitro-cinnamic acid,Koerner,charochkina,A5793,-,-,-,4.05,Log unit,25,?C,OC(=O)C=Cc1ccc(cc1)N(=O)=O,"{co2h=8, aliphatic_carboxylic_acid=8}"
[NH3+]C(CC1=CC=CC=C1)C(O)=O,-,R936171,M1523,-,-,Phenylalanine,Koerner,charochkina,A5793,-,-,-,2.16,Log unit,25,?C,OC(=O)C(Cc1ccccc1)[NH3+],"{co2h=9, aliphatic_carboxylic_acid=9}"
NC(CC1=CC=CC=C1)C([O-])=O,-,R936172,M1523,-,-,Phenylalanine,Koerner,charochkina,A5793,-,-,-,9.1,Log unit,25,?C,NC(Cc1ccccc1)C(=O)[O-],{nr2=6}
COC1=CC=C(CC(O)=O)C=C1,-,R936173,M7546,-,-,p-methoxyphenyl-acetic acid,Koerner,charochkina,A5793,-,-,-,4.355,Log unit,25,?C,OC(=O)Cc1ccc(cc1)OC,"{co2h=7, aliphatic_carboxylic_acid=7}"
COC1=C(OC)C=C(CC(O)=O)C=C1,-,R936174,M18064,-,-,"3,4-dimethoxyphenyl-acetic acid",Koerner,charochkina,A5793,-,-,-,4.33,Log unit,25,?C,OC(=O)Cc1ccc(OC)c(c1)OC,"{co2h=7, aliphatic_carboxylic_acid=7}"
COC1=CC=CC=C1CCC(O)=O,-,R936175,M77047,-,-,b-(o-methoxyphenyl)-propionic acid,Koerner,charochkina,A5793,-,-,-,4.8,Log unit,25,?C,OC(=O)CCc1ccccc1OC,"{co2h=8, aliphatic_carboxylic_acid=8}"
COC1=CC(CCC(O)=O)=CC=C1,-,R936176,M112667,-,-,b-(m-methoxyphenyl)-propionic acid,Koerner,charochkina,A5793,-,-,-,4.65,Log unit,25,?C,OC(=O)CCc1cccc(c1)OC,"{co2h=12, aliphatic_carboxylic_acid=12}"
COC1=CC=C(CCC(O)=O)C=C1,-,R936177,M25967,-,-,b-(p-methoxyphenyl)-propionic acid,Koerner,charochkina,A5793,-,-,-,4.7,Log unit,25,?C,OC(=O)CCc1ccc(cc1)OC,"{co2h=8, aliphatic_carboxylic_acid=8}"
COC1=CC=CC=C1C=CC(O)=O,-,R936178,M24342,-,-,o-methoxy-cinnamic acid,Koerner,charochkina,A5793,-,-,-,4.46,Log unit,25,?C,OC(=O)C=Cc1ccccc1OC,"{co2h=8, aliphatic_carboxylic_acid=8}"
COC1=CC(C=CC(O)=O)=CC=C1,-,R936179,M34216,-,-,m-methoxy-cinnamic acid,Koerner,charochkina,A5793,-,-,-,4.37,Log unit,25,?C,OC(=O)C=Cc1cccc(c1)OC,"{co2h=12, aliphatic_carboxylic_acid=12}"
COC1=CC=C(C=CC(O)=O)C=C1,-,R936180,M112,-,-,p-methoxy-cinnamic acid,Koerner,charochkina,A5793,-,-,-,4.54,Log unit,25,?C,OC(=O)C=Cc1ccc(cc1)OC,"{co2h=8, aliphatic_carboxylic_acid=8}"
OC(=O)CCSCC1=CC=CC=C1,-,R936181,M110035,-,-,beta-(benzylthio)propionic acid,Koerner,charochkina,A5793,-,-,-,4.46,Log unit,25,?C,OC(=O)CCSCc1ccccc1,"{co2h=5, aliphatic_carboxylic_acid=5}"
OC(=O)CSCCC1=CC=CC=C1,-,R936182,M124389,-,-,PHENETHYLTHIOACETIC ACID,Koerner,charochkina,A5793,-,-,-,3.79,Log unit,25,?C,OC(=O)CSCCc1ccccc1,"{co2h=4, aliphatic_carboxylic_acid=4}"
OC(C(O)=O)C1=CC(F)=CC=C1,-,R936183,M1016072,-,-,meta-fluoro-mandelic acid,Koerner,charochkina,A5793,-,-,-,4.24,Log unit,25,?C,OC(=O)C(c1cc(F)ccc1)O,"{co2h=11, aliphatic_carboxylic_acid=11}"
OC(C(O)=O)C1=CC(Cl)=CC=C1,-,R936184,M116488,-,-,m-chloro-mandelic acid,Koerner,charochkina,A5793,-,-,-,3.24,Log unit,25,?C,OC(=O)C(c1cc(Cl)ccc1)O,"{co2h=11, aliphatic_carboxylic_acid=11}"
OC(C(O)=O)C1=CC(Br)=CC=C1,-,R936185,M1050330,-,-,m-bromo-mandelic acid,Koerner,charochkina,A5793,-,-,-,3.23,Log unit,25,?C,OC(=O)C(c1cc(Br)ccc1)O,"{co2h=11, aliphatic_carboxylic_acid=11}"
OC(C(O)=O)C1=CC(I)=CC=C1,-,R936186,M1050331,-,-,m-iodo-mandelic acid,Koerner,charochkina,A5793,-,-,-,3.26,Log unit,25,?C,OC(=O)C(c1cc(I)ccc1)O,"{co2h=11, aliphatic_carboxylic_acid=11}"
[NH3+]C(CC1=CC=CC=C1F)C(O)=O,-,R936187,M123150,-,-,o-Fluorophenylalanine,Koerner,charochkina,A5793,-,-,-,2.12,Log unit,25,?C,OC(=O)C(Cc1c(F)cccc1)[NH3+],"{co2h=12, aliphatic_carboxylic_acid=12}"