
Host: RR.local

Timers On : Mon Aug 24 15:05:01 2020
Timers Off: Mon Aug 24 15:05:05 2020

Wall Time:        3.75 seconds

                                                       Time (seconds)
Module                                       User      System        Wall        Calls

--------------------------------------------------------------------------------------

**************************************************************************************
