Smiles,Name,pKa,pKa Unit,Ionizable center smiles,IC group,Temperature,Temperature Unit
NC1=NC(N)=C(C(N)=N1)N(=O)=O,"2,4,6-TRIAMINO-5-NITROPYRIMIDINE",3.22,Log unit,n1c(nc(N)c(c1N)N(=O)=O)N,7,25,?C
COC1=CC(C)=NC(NN)=N1,2-hydrazino-4-methoxy-6-methylpyrimidine,6.2,Log unit,n1c(nc(OC)cc1C)NN,5,25,?C
COC1=NC(C)=CC([O-])=N1,4-hydroxy-2-methoxy-6-methylpyrimidine,8.5,Log unit,[O-]c1nc(nc(c1)C)OC,n,25,?C
COC1=CC=C(C=C1)C1=CN=C([O-])N=C1,2-hydroxy-5-p-methoxyphenylpyrimidine,8.56,Log unit,[O-]c1ncc(c2ccc(OC)cc2)cn1,n,25,?C
CC1=CN=CN=C1[O-],4-hydroxy-5-methylpyrimidine,8.87,Log unit,[O-]c1ncncc1C,n,25,?C
[O-]C1=NC=C(C=N1)C1=CC=C(C=C1)N(=O)=O,2-hydroxy-5-p-nitrophenylpyrimidine,7.87,Log unit,[O-]c1ncc(cn1)c1ccc(N(=O)=O)cc1,n,25,?C
CC1=CC=C(C=C1)C1=CN=C([O-])N=C1,2-hydroxy-5-p-tolylpyrimidine,8.44,Log unit,[O-]c1ncc(c2ccc(cc2)C)cn1,n,25,?C
CC1=NC([O-])=NC(C)=C1C,"2-hydroxy-4,5,6-trimethylpyrimidine",10.55,Log unit,[O-]c1nc(C)c(C)c(n1)C,n,25,?C
NNC1=CC=CC2=C1C=CC=N2,5-hydrazinoquinoline,5.36,Log unit,NNc1c2c(nccc2)ccc1,n,25,?C
NC1=NC(N)=C(C=N1)N(=O)=O,"2,4-diamino-5-nitropyrimidine",2.58,Log unit,n1cc(c(N)nc1N)N(=O)=O,6,25,?C
NC1=CC(OC2=CC=CC=C2)=NC(N)=N1,"2,4-diamino-6-phenoxypyrimidine",4.8,Log unit,n1c(nc(Oc2ccccc2)cc1N)N,5,25,?C
NC1=CC(=NC(N)=N1)C1=CC=CC=C1,"2,4-diamino-6-phenylpyrimidine",6.7,Log unit,n1c(c2ccccc2)cc(nc1N)N,6,25,?C
NC1=NC(N)=C(C2=CC=CC=C2)C(=N1)C(F)(F)F,"2,4-diamino-5-phenyl-6-trifluoromethylpyrimidine",3.25,Log unit,n1c(c(c2ccccc2)c(nc1N)C(F)(F)F)N,5,25,?C
COC1=CC(=CC(OC)=C1OC)C1=C(N)N=C(N)N=C1,"2,4-diamino-5-(3',4',5'-trimethoxyphenyl)pyrimidine",6.7,Log unit,n1c(nc(N)c(c1)c1cc(OC)c(OC)c(c1)OC)N,5,25,?C
CC1=NC(NN)=C(C(NN)=N1)N(=O)=O,"4,6-dihydrazino-2-methyl-5-nitropyrimidine",4.1,Log unit,NNc1c(N(=O)=O)c(nc(n1)C)NN,10,25,?C
COC1=C(OC)N=C(C)N=C1,"4,5-dimethoxy-2-methylpyrimidine",4.11,Log unit,n1cc(OC)c(OC)nc1C,2,25,?C
CSC1=NC(C)=NC(C)=C1,"2,4-dimethyl-6-methylthiopyrimidine",4,Log unit,n1c(nc(SC)cc1C)C,1,25,?C
CC1=CC(=NC(C)=N1)S([O-])(=O)=O,"2,6-dimethyl-4-sulphopyrimidine",1.62,Log unit,n1c(nc(S(=O)(=O)[O-])cc1C)C,1,25,?C
CCOC(=O)C1=C(OCC)N=C(C)N=C1,4-ethoxy-5-ethoxycarbonyl-2-methylpyrimidine,2.5,Log unit,n1cc(c(OCC)nc1C)C(=O)OCC,2,25,?C
CCOC1=NC=C(C)C=N1,2-ethoxy-5-methylpyrimidine,1.75,Log unit,n1cc(cnc1OCC)C,2,25,?C
CCSC1=NC=CC=N1,2-ethylthiopyrimidine,0.7,Log unit,n1c(SCC)nccc1,2,25,?C
CCSC1=NC=NC=C1,4-ethylthiopyrimidine,2.6,Log unit,n1cnc(SCC)cc1,1,25,?C
[O-]c1nccc[n+]1,2-Hydroxypyrimidine,2.15,Log unit,[O-]c1[n+]cccn1,n,25,?C
COC1=CN=CN=C1[O-],4-hydroxy-5-methoxypyrimdine,8.64,Log unit,[O-]c1ncncc1OC,2,25,?C
Cc1cc[n+]c([O-])n1,2-hydroxy-4-methylpyrimidine,3.06,Log unit,[O-]c1[n+]ccc(n1)C,n,25,?C
COC1=C(C(NN)=NC=N1)N(=O)=O,4-hydrazino-6-methoxy-5-nitropyrimidine,2.72,Log unit,NNc1c(N(=O)=O)c(ncn1)OC,5,25,?C
NNC1=NC=NC=C1N(=O)=O,4-hydrazino-5-nitropyrimidine,2.58,Log unit,NNc1ncncc1N(=O)=O,6,25,?C
Cc1cc(C)[n+]c([O-])n1,"2-Hydroxy-4,6-dimethylpyrimidine",3.7,Log unit,[O-]c1[n+]c(cc(n1)C)C,n,25,?C
CC(C)C1=C([O-])N=CN=C1[S-],4-hydroxy-5-isopropyl-6-mercaptopyrimidine,12.3,Log unit,[O-]c1c(c([S-])ncn1)C(C)C,2,25,?C
CC(C)c1c([O-])nc[n+]c1[S-],4-hydroxy-5-isopropyl-6-mercaptopyrimidine,5.1,Log unit,[S-]c1[n+]cnc(c1C(C)C)[O-],n,25,?C
Oc1cc[n+]c([S-])[n+]1,4-Hydroxy-2-mercaptopyrimidine,-4.14,Log unit,Oc1[n+]c([S-])[n+]cc1,oh,25,?C
Oc1cc[n+]c(S)[n+]1,4-Hydroxy-2-mercaptopyrimidine,-6.64,Log unit,Oc1[n+]c(S)[n+]cc1,sh,25,?C
CC1=C([O-])N=CN=C1[S-],4-hydroxy-6-mercapto-5-methylpyrimidine,11.75,Log unit,[O-]c1c(c([S-])ncn1)C,2,25,?C
Cc1c([O-])nc[n+]c1[S-],4-hydroxy-6-mercapto-5-methylpyrimidine,4.97,Log unit,[S-]c1[n+]cnc(c1C)[O-],n,25,?C
CCCc1cc([O-])[n+]c(S)[n+]1,4-hydroxy-2-mercapto-6-n-propylpyrimidine,-6.54,Log unit,[O-]c1[n+]c(S)[n+]c(c1)CCC,sh,25,?C
CCCc1cc(O)[n+]c([S-])[n+]1,4-hydroxy-2-mercapto-6-n-propylpyrimidine,-4.22,Log unit,Oc1[n+]c([S-])[n+]c(c1)CCC,oh,25,?C
COC1=CC=C(C=C1)c1cnc([O-])[n+]c1,2-hydroxy-5-p-methoxyphenylpyrimidine,2.21,Log unit,[O-]c1[n+]cc(c2ccc(OC)cc2)cn1,n,25,?C
Cc1c[n+]cnc1[O-],4-hydroxy-5-methylpyrimidine,2.59,Log unit,[O-]c1nc[n+]cc1C,n,25,?C
CSC1=NC=NC([O-])=C1C,4-hydroxy-5-methyl-6-methylthiopyrimidine,9.17,Log unit,[O-]c1c(c(SC)ncn1)C,1,25,?C
CSC1=NC=NC([O-])=C1,4-hydroxy-6-methylthiopyrimidine,8.47,Log unit,[O-]c1cc(SC)ncn1,1,25,?C
[O-]c1ncc(c[n+]1)C1=CC=C(C=C1)N(=O)=O,2-hydroxy-5-p-nitrophenylpyrimidine,1.72,Log unit,[O-]c1ncc(c[n+]1)c1ccc(N(=O)=O)cc1,n,25,?C
CC1=CC=C(C=C1)c1cnc([O-])[n+]c1,2-hydroxy-5-p-tolylpyrimidine,2.26,Log unit,[O-]c1[n+]cc(c2ccc(cc2)C)cn1,n,25,?C
Cc1nc([O-])[n+]c(C)c1C,"2-hydroxy-4,5,6-trimethylpyrimidine",4.51,Log unit,[O-]c1[n+]c(C)c(C)c(n1)C,n,25,?C
CC(C)(C)OC1=NC=CC=N1,2-isobutoxypyrimidine,1.07,Log unit,N1CCCNC1OC(C)(C)C,2,25,?C
CC(C)OC1=NC=CC=N1,2-isopropoxypyrimidine,1.38,Log unit,N1CCCNC1OC(C)C,2,25,?C
CC(C)OC1=CC=NC(C)=N1,4-isopropoxy-2-methylpyrimidine,4.46,Log unit,n1ccc(OC(C)C)nc1C,2,25,?C
CC(C)SC1=NC=CC=N1,2-isopropylthiopyrimidine,0.81,Log unit,n1c(SC(C)C)nccc1,2,25,?C
Sc1[n+]ccc[n+]1,2-Mercaptopyrimidine,-8.3,Log unit,c1[n+]c(S)[n+]cc1,sh,25,?C
[S-]c1nccc[n+]1,2-Mercaptopyrimidine,1.325,Log unit,[S-]c1[n+]cccn1,n,25,?C
[S-]C1=NC=NC=C1,4-mercaptopyrimidine,6.94,Log unit,[S-]c1ncncc1,2,25,?C
[S-]c1ccnc[n+]1,4-mercaptopyrimidine,-0.75,Log unit,n1c[n+]c([S-])cc1,n,25,?C
Cc1cc(C)[n+]c([S-])n1,"2-Mercapto-4,6-dimethylpyrimidine",2.8,Log unit,[S-]c1[n+]c(cc(n1)C)C,n,25,?C
Cc1cc[n+]c([S-])n1,2-mercapto-4-methylpyrimidine,2.1,Log unit,[S-]c1[n+]ccc(n1)C,n,25,?C
CC1=CC([S-])=NC(C)=N1,"4-mercapto-2,6-dimethylpyrimidine",8.2,Log unit,[S-]c1nc(nc(c1)C)C,2,25,?C
COc1cc(S)[n+]cn1,4-mercapto-6-methoxypyrimidine,-1.98,Log unit,O(c1cc(S)[n+]cn1)C,sh,25,?C
COC1=CC([S-])=NC=N1,4-mercapto-6-methoxypyrimidine,7.51,Log unit,[S-]c1ncnc(c1)OC,2,25,?C
COc1nc[n+]c(S)c1C,4-mercapto-6-methoxy-5-methylpyrimidine,-1.59,Log unit,O(c1c(c(S)[n+]cn1)C)C,sh,25,?C
COC1=C(C)C([S-])=NC=N1,4-mercapto-6-methoxy-5-methylpyrimidine,7.9,Log unit,[S-]c1ncnc(c1C)OC,2,25,?C
CC1=CC([S-])=NC=N1,4-mercapto-6-methyl,7.3,Log unit,[S-]c1ncnc(c1)C,2,25,?C
COC1=NC(C)=CC(C)=N1,"2-methoxy-4,6-dimethylpyrimidine",2.7,Log unit,N1C(CC(C)NC1OC)C,2,25,?C
COC1=NC(C)=NC(C)=C1,"4-methoxy-2,6-dimethylpyrimidine",4.71,Log unit,n1c(nc(OC)cc1C)C,2,25,?C
COC1=CC=C(C=C1)C1=CN=C(OC)N=C1,2-methoxy-5-p-methoxyphenylpyrimidine,0.78,Log unit,n1cc(c2ccc(cc2)OC)cnc1OC,2,25,?C
COC1=NC(C)=CC=N1,2-methoxy-4-methylpyrimidine,2,Log unit,n1ccc(C)nc1OC,2,25,?C
COC1=CC(C)=NC=N1,4-methoxy-6-methylpyrimidine,3.56,Log unit,n1cnc(OC)cc1C,1,25,?C
COC1=NC=C(C)C=N1,2-methoxy-5-methylpyrimidine,1.37,Log unit,N1CC(CNC1OC)C,2,25,?C
COC1=CC=NC(C)=N1,4-methoxy-2-methylpyrimidine,3.98,Log unit,N1CCC(OC)NC1C,2,25,?C
COC1=NC=NC=C1C,4-methoxy-5-methylpyrimidine,3.57,Log unit,N1CNC(OC)C(C1)C,2,25,?C
COC1=NC=NC=C1C1=CC=C(C=C1)N(=O)=O,4-methoxy-5-nitrophenylpyrimidine,2.4,Log unit,n1cc(c2ccc(N(=O)=O)cc2)c(OC)nc1,2,25,?C
COC1=NC=C(C=N1)C1=CC=CC=C1,2-methoxy-5-phenylpyrimidine,0.79,Log unit,n1cc(c2ccccc2)cnc1OC,2,25,?C
COC1=NC=NC=C1C1=CC=CC=C1,4-methoxy-5-phenylpyrimidine,2.94,Log unit,n1cc(c2ccccc2)c(nc1)OC,2,25,?C
COC1=CC=C(C=C1)C1=CN=C(SC)N=C1,5-p-methoxyphenyl-2-methylthiopyrimidine,0.52,Log unit,n1c(SC)ncc(c1)c1ccc(OC)cc1,2,25,?C
COC1=NC=C(C=N1)C1=CC=C(C)C=C1,2-methoxy-5-p-tolylpyrimidine,0.77,Log unit,n1cc(cnc1OC)c1ccc(C)cc1,2,25,?C
COC1=CC(SC)=NC=N1,4-methoxy-6-methylthiopyrimidine,1.62,Log unit,n1c(SC)cc(nc1)OC,2,25,?C
CSC1=NC=NC(C)=C1,4-methyl-6-methylthiopyrimidine,3.16,Log unit,n1cnc(SC)cc1C,1,25,?C
CC1=NC(OC2=CC=CC=C2)=CC=N1,2-methyl-4-phenoxypyrimidine,3.17,Log unit,n1ccc(Oc2ccccc2)nc1C,2,25,?C
CSC1=NC=NC=C1,4-methylthiopyrimidine,2.41,Log unit,n1cnc(SC)cc1,1,25,?C
NC1=NC(N)=C(N)C=N1,"2,4,5-triaminopyrimidine",7.6,Log unit,n1cc(N)c(N)nc1N,8,25,?C
NC1=NC(N)=C(CC2=CC=CC=C2)C(N)=N1,"2,4,6-triamino-5-benzylpyrimidine",6.55,Log unit,n1c(c(Cc2ccccc2)c(nc1N)N)N,7,25,?C
NC1=NC(N)=C(Br)C(N)=N1,"2,4,6-triamino-5-bromopyrimidine",5.17,Log unit,n1c(c(Br)c(nc1N)N)N,7,25,?C
NC1=NC(N)=C(Cl)C(N)=N1,"2,4,6-triamino-5-chloropyrimidine",5.15,Log unit,n1c(c(Cl)c(nc1N)N)N,7,25,?C
NC1=NC(N)=C(C=O)C(N)=N1,"2,4,6-triamino-5-formylpyrimidine",5.27,Log unit,n1c(nc(N)c(c1N)C=O)N,7,25,?C
NC1=NC=C(C=N1)C1=CC=C(Br)C=C1,2-amino-5-(4-bromophenyl)pyrimidine,3.06,Log unit,n1cc(c2ccc(Br)cc2)cnc1N,4,25,?C
CC(C)(C)C1=CC=NC(N)=N1,2-amino-4-t-butylpyrimidine,4.58,Log unit,n1ccc(C(C)(C)C)nc1N,4,25,?C
NC(=O)C1=CN=CN=C1N,4-amino-5-carbamoylpyrimidine,4.13,Log unit,n1cnc(N)c(c1)C(=O)N,6,25,?C
CC1=NC(N)=C(C=N1)C(N)=O,4-amino-5-carbamoyl-2-methylpyrimidine,4.97,Log unit,n1cc(c(N)nc1C)C(=O)N,6,25,?C
NC1=NC=C(Cl)C=N1,2-Amino-5-chloropyrimidine,1.73,Log unit,n1cc(Cl)cnc1N,4,25,?C
NC1=CC(Cl)=NC=N1,4-amino-6-chloropyrimidine,2.1,Log unit,n1cnc(Cl)cc1N,n,25,?C
NC1=NC=C(Cl)C([O-])=N1,2-amino-5-chloro-4-hydroxypyrimidine,7.97,Log unit,[O-]c1nc(ncc1Cl)N,3,25,?C
NC1=NC([O-])=CC(Cl)=N1,2-amino-6-chloro-4-hydroxypyrimidine,8.06,Log unit,[O-]c1cc(Cl)nc(n1)N,3,25,?C
NC1=NC([O-])=NC=C1Cl,4-amino-5-chloro-2-hydroxypyrimidine,10.36,Log unit,[O-]c1ncc(c(n1)N)Cl,4,25,?C
NC1=CC(Cl)=NC([O-])=N1,4-amino-6-chloro-2-hydroxypyrimidine,8.59,Log unit,[O-]c1nc(Cl)cc(n1)N,3,25,?C
NC1=NC=C(C=N1)C1=CC=C(Cl)C=C1,2-amino-5-(4-chlorophenyl)pyrimidine,3.14,Log unit,n1cc(c2ccc(Cl)cc2)cnc1N,4,25,?C
NC1=NC=C(C=N1)C#N,2-amino-5-cyanopyrimidine,0.66,Log unit,n1cc(cnc1N)C#N,4,25,?C
NC1=NC=NC=C1C#N,4-amino-5-cyanopyrimidine,2.49,Log unit,n1cnc(N)c(c1)C#N,4,25,?C
CC1=NC(N)=NC(C)=C1C#N,"2-amino-5-cyano-4,6-dimethylpyrimidine",1.67,Log unit,n1c(c(C#N)c(nc1N)C)C,4,25,?C
CC1=C(C=NC(N)=N1)C#N,2-amino-5-cyano-4-methylpyrimidine,1.14,Log unit,n1cc(c(C)nc1N)C#N,4,25,?C
CC1=NC(N)=C(C=N1)C#N,4-Amino-5-cyano-2-methylpyrimidine,3.51,Log unit,n1cc(c(N)nc1C)C#N,4,25,?C
COC1=CC(N)=NC(OC)=N1,"4-Amino-2,6-dimethoxypyrimidine",3.22,Log unit,n1c(cc(OC)nc1OC)N,4,25,?C
CC1=NC(C)=NC(N)=C1,"4-Amino-2,6-dimethylpyrimidine",6.935,Log unit,n1c(nc(cc1C)N)C,3,25,?C
NC1=NC=CC([O-])=N1,2-Amino-4-hydroxypyrimidine,9.54,Log unit,[O-]c1nc(ncc1)N,4,25,?C
NC1=CC([O-])=NC=N1,4-Amino-6-hydroxypyrimidine,10.1,Log unit,[O-]c1ncnc(c1)N,4,25,?C
CC1=CN=C([O-])N=C1N,4-Amino-2-hydroxy-5-methylpyrimidine,12.4,Log unit,[O-]c1ncc(C)c(n1)N,4,25,?C
CCOC(=O)C1=C(N)N=C(C)N=C1,4-amino-5-ethoxycarbonyl-2-methylpyrimidine,4.53,Log unit,n1cc(c(N)nc1C)C(=O)OCC,4,25,?C
NC1=NC=C(C=N1)C1=CC=C(F)C=C1,2-amino-5-(4-fluorophenyl)pyrimidine,3.25,Log unit,n1cc(c2ccc(F)cc2)cnc1N,4,25,?C
CC1=NC=C(C=O)C(N)=N1,4-amino-5-formyl-2-methylpyrimidine,4.46,Log unit,n1cc(C=O)c(nc1C)N,4,25,?C
CC1=NC(N)=C(C(NN)=N1)N(=O)=O,4-amino-6-hydrazino-2-methyl-5-nitropyrimidine,4.03,Log unit,n1c(c(N(=O)=O)c(nc1C)N)NN,7,25,?C
NNC1=NC=NC(N)=C1N(=O)=O,4-amino-6-hydrazino-5-nitropyrimidine,3.65,Log unit,n1c(c(N(=O)=O)c(nc1)NN)N,7,25,?C
NC1=NC=CC([S-])=N1,2-amino-4-mercaptopyrimidine,8.05,Log unit,[S-]c1nc(ncc1)N,4,25,?C
NC1=NC([S-])=NC=C1,4-amino-2-mercaptopyrimidine,10.66,Log unit,[S-]c1nccc(n1)N,4,25,?C
COC1=NC(N)=CC=N1,4-amino-2-methoxypyrimidine,5.3,Log unit,n1ccc(N)nc1OC,4,25,?C
COC1=CC=NC(N)=N1,2-Amino-4-methoxypyrimidine,5.51,Log unit,n1ccc(OC)nc1N,4,25,?C
COC1=NC=NC=C1N,5-amino-4-methoxypyrimidine,4.22,Log unit,n1cnc(OC)c(c1)N,4,25,?C
COC1=NC(C)=NC(N)=C1,4-amino-6-methoxy-2-methylpyrimidine,4.42,Log unit,n1c(nc(N)cc1OC)C,3,25,?C
COC1=CC=C(C=C1)C1=CN=C(N)N=C1,2-amino-5-(4-methoxyphenyl)pyrimidine,3.32,Log unit,n1cc(c2ccc(cc2)OC)cnc1N,4,25,?C
COC1=NC=NC(N)=C1,4-Amino-6-methoxypyrimidine,4,Log unit,n1cnc(N)cc1OC,3,25,?C
CC1=CC=NC(N)=N1,2-AMINO-4-METHYLPYRIMIDINE,4.135,Log unit,n1ccc(C)nc1N,4,25,?C
CC1=NC=NC(N)=C1,4-amino-6-methylpyrimidine,6.16,Log unit,n1cnc(N)cc1C,3,25,?C
CC1=NC=NC=C1N,5-amino-4-methylpyrimidine,3.06,Log unit,n1cnc(C)c(c1)N,4,25,?C
CC1=NC(N)=CC=N1,4-amino-2-methylpyrimidine,6.53,Log unit,n1ccc(N)nc1C,4,25,?C
CC1=NC(N)=C(C=N1)N(=O)=O,4-amino-2-methyl-5-nitropyrimidine,2.67,Log unit,n1cc(c(N)nc1C)N(=O)=O,4,25,?C
CSC1=NC(N)=NC=C1,2-amino-4-methylthiopyrimidine,4.73,Log unit,n1c(nc(SC)cc1)N,3,25,?C
CSC1=NC=CC(N)=N1,4-amino-2-methylthiopyrimidine,4.89,Log unit,n1c(SC)nc(cc1)N,4,25,?C
CSC1=NC=NC(N)=C1,4-amino-6-methylthiopyrimidine,3.94,Log unit,n1c(SC)cc(nc1)N,4,25,?C
NC1=NC=C(C=N1)N(=O)=O,2-Amino-5-nitropyrimidine,0.335,Log unit,n1cc(cnc1N)N(=O)=O,4,25,?C
NC1=NC=NC=C1N(=O)=O,4-amino-5-nitropyrimidine,1.98,Log unit,n1cnc(N)c(c1)N(=O)=O,4,25,?C
NC1=NC=C(C=N1)C1=CC=C(C=C1)N(=O)=O,2-amino-5-(4-nitrophenyl)pyrimidine,2.7,Log unit,n1cc(c2ccc(N(=O)=O)cc2)cnc1N,4,25,?C
NC1=NC=C(C=N1)C1=CC=CC=C1,2-amino-5-phenylpyrimidine,3.32,Log unit,n1cc(c2ccccc2)cnc1N,4,25,?C
NC1=CC=NC(=N1)C(F)(F)F,4-amino-2-trifluoromethylpyrimidine,1.39,Log unit,n1ccc(N)nc1C(F)(F)F,3,25,?C
BrC1=NC=CC=N1,2-Bromopyrimidine,-1.9,Log unit,n1c(Br)nccc1,2,25,?C
[O-]C1=NC=C(Br)C=N1,5-Bromo-2-hydroxypyrimidine,7.06,Log unit,[O-]c1ncc(Br)cn1,n,25,?C
[O-]c1ncc(Br)c[n+]1,5-Bromo-2-hydroxypyrimidine,0.4,Log unit,[O-]c1[n+]cc(Br)cn1,n,25,?C
[O-]C1=NC=NC=C1Br,5-Bromo-4-hydroxypyrimidine,7.36,Log unit,[O-]c1c(Br)cncn1,2,25,?C
[S-]c1ncc(Br)c[n+]1,5-bromo-2-mercaptopyrimidine,-0.43,Log unit,[S-]c1[n+]cc(Br)cn1,n,25,?C
[S-]C1=NC=C(Br)C=N1,5-bromo-2-mercaptopyrimidine,5.22,Log unit,[S-]c1ncc(Br)cn1,n,25,?C
[S-]C1=NC=NC=C1Br,5-bromo-4-mercaptopyrimidine,5.65,Log unit,[S-]c1c(Br)cncn1,1,20,?C
COC1=NC=C(Br)C=N1,5-bromo-2-methoxypyrimidine,-0.77,Log unit,n1cc(Br)cnc1OC,2,25,?C
COC1=NC=NC=C1Br,5-bromo-4-methoxypyrimidine,1.35,Log unit,n1cc(Br)c(nc1)OC,2,25,?C
CSC1=NC=C(Br)C=N1,5-bromo-2-methylthiopyrimidine,-0.9,Log unit,n1cc(Br)cnc1SC,2,25,?C
CSC1=NC=NC=C1Br,5-bromo-4-methylthiopyrimidine,1.02,Log unit,n1cc(Br)c(SC)nc1,2,25,?C
CCC1=NC(N)=NC(N)=C1C1=CC=C(Cl)C=C1,"2,4-Diamino-5-(p-chlorophenyl)-6-ethylpyrimidine",7.3,Log unit,n1c(c(c2ccc(Cl)cc2)c(nc1N)N)CC,6,25,?C
COC1=NC=C(C=N1)C1=CC=C(Br)C=C1,5-p-bromophenyl-2-methoxypyrimidine,0.61,Log unit,n1cc(c2ccc(Br)cc2)cnc1OC,2,25,?C
[O-]C(=O)C1=NC=CC=N1,2-carboxypyrimidine,2.5,Log unit,[O-]C(=O)c1ncccn1,n,25,?C
CC1=CC(C)=NC(Cl)=N1,"2-chloro-4,6-dimethylpyrimidine",-0.68,Log unit,n1c(Cl)nc(cc1C)C,2,25,?C
CCCC1=C(C)N=C(Cl)N=C1C,"2-chloro-4,6-dimethyl-5-propylpyrimidine",-0.34,Log unit,n1c(Cl)nc(c(c1C)CCC)C,2,25,?C
COC1=NC=C(C=N1)C1=CC=C(Cl)C=C1,5-p-chlorophenyl-2-methoxypyrimidine,0.62,Log unit,n1cc(c2ccc(Cl)cc2)cnc1OC,2,25,?C
NC1=CN=CN=C1N,"4,5-Diaminopyrimidine",6.02,Log unit,n1cnc(N)c(c1)N,6,25,?C
NC1=NC=C(CC2=CC=CC=C2)C(N)=N1,"2,4-DIAMINO-5-BENZYLPYRIMIDINE",7.27,Log unit,n1cc(Cc2ccccc2)c(nc1N)N,6,25,?C
NC1=NC=NC(N)=C1Br,"4,6-diamino-5-bromopyrimidine",4.2,Log unit,n1c(c(Br)c(nc1)N)N,5,25,?C
NC1=NC=C(Br)C(N)=N1,"2,4-diamino-5-bromopyrimidine",5.59,Log unit,n1cc(Br)c(nc1N)N,6,25,?C
NC1=NC(N)=C(C=N1)C([O-])=O,"2,4-diamino-5-carboxypyrimidine",6.8,Log unit,N1CC(C(N)NC1N)C(=O)[O-],6,25,?C
NC1=NC=NC(C([O-])=O)=C1N,"4,5-diamino-6-carboxypyrimidine",7.2,Log unit,n1cnc(N)c(N)c1C(=O)[O-],6,25,?C
NC1=CC(Cl)=NC(N)=N1,"2,4-Diamino-6-chloropyrimidine",3.575,Log unit,n1c(nc(Cl)cc1N)N,6,25,?C
NC1=CN=C(Cl)N=C1N,"4,5-diamino-2-chloropyrimidine",2.63,Log unit,n1c(Cl)nc(c(c1)N)N,6,25,?C
NC1=NC=C(Cl)C(N)=N1,"2,4-diamino-5-chloropyrimidine",5.52,Log unit,n1cc(Cl)c(nc1N)N,6,25,?C
NC1=NC=C(OCC2=CC=C(Cl)C=C2)C(N)=N1,"2,4-diamino-5-(p-chlorophenoxy)pyrimidine",6.16,Log unit,n1cc(OCc2ccc(Cl)cc2)c(nc1N)N,6,25,?C
NC1=NC=C(C(N)=N1)C1=CC(Cl)=CC=C1,"2,4-diamino-5-(m-chlorophenyl)pyrimidine",6.7,Log unit,n1cc(c2cc(Cl)ccc2)c(nc1N)N,6,25,?C
NC1=NC=C(C(N)=N1)C1=CC=C(Cl)C=C1,"2,4-diamino-5-(p-chlorophenyl)pyrimidine",6.79,Log unit,n1cc(c2ccc(Cl)cc2)c(nc1N)N,6,25,?C
CC(C)CC1=NC(N)=NC(N)=C1C1=CC=C(Cl)C=C1,"2,4-diamino-5-(p-chlorophenyl)-6-isobutylpyrimidine",7.39,Log unit,n1c(c(c2ccc(Cl)cc2)c(nc1N)N)CC(C)C,5,25,?C
CC1=NC(N)=NC(N)=C1C1=CC=C(Cl)C=C1,"2,4-diamino-5-(p-chlorophenyl)-6-methylpyrimidine",7.26,Log unit,n1c(c(c2ccc(Cl)cc2)c(nc1N)N)C,5,25,?C
CCCC1=NC(N)=NC(N)=C1C1=CC=C(Cl)C=C1,"2,4-diamino-5-(p-chlorophenyl)-6-n-propylpyrimidine",7.35,Log unit,n1c(c(c2ccc(Cl)cc2)c(nc1N)N)CCC,5,25,?C
NC1=NC=C(SC2=CC=C(Cl)C=C2)C(N)=N1,"2,4-diamino-5-(p-chlorophenylthio)pyrimidine",5.4,Log unit,n1cc(Sc2ccc(Cl)cc2)c(nc1N)N,6,25,?C
NC1=CC(SC2=CC=C(Cl)C=C2)=NC(N)=N1,"2,4-diamino-6-(p-chlorophenylthio)pyrimidine",5.02,Log unit,n1c(Sc2ccc(Cl)cc2)cc(nc1N)N,6,25,?C
CCC1=NC(N)=NC(N)=C1SC1=CC=C(Cl)C=C1,"2,4-diamino-5-(p-chlorophenylthio)-6-ethylpyrimidine",6.27,Log unit,n1c(c(Sc2ccc(Cl)cc2)c(nc1N)N)CC,5,25,?C
NC1=NC(N)=C(C=N1)C#N,"2,4-Diamino-5-cyanopyrimidine",3.75,Log unit,n1cc(c(N)nc1N)C#N,6,25,?C
CCOC(=O)c1nc([S-])[n+]c(N)c1N,"4,5-diamino-6-ethoxycarbonyl-2-mercaptopyrimidine",1.81,Log unit,[S-]c1[n+]c(N)c(N)c(n1)C(=O)OCC,n,25,?C
NC1=CN=C([S-])N=C1N,"4,5-diamino-2-mercaptopyrimidine",10.42,Log unit,[S-]c1ncc(N)c(n1)N,6,25,?C
CC1=NC(N)=NC(N)=C1,"2,4-diamino-6-methyl",7.615,Log unit,n1c(nc(N)cc1C)N,5,25,?C
CCC1=NC(N)=NC(N)=C1C1=CC=C(Cl)C(Cl)=C1,"2,4-Diamino-5-(3',4'-dichlorophenyl)-6-ethylpyrimidine",7.2,Log unit,n1c(c(c2ccc(Cl)c(Cl)c2)c(nc1N)N)CC,5,25,?C
CC1=NC(N)=NC(N)=C1C1=CC=C(Cl)C(Cl)=C1,"2,4-diamino-5-(3',4'-dichlorophenyl)-6-methylpyrimidine",7.15,Log unit,n1c(c(c2ccc(Cl)c(Cl)c2)c(nc1N)N)C,5,25,?C
CC1=NC(N)=NC(N)=C1C,"2,4-diamino-5,6-dimethylpyrimidine",8.07,Log unit,n1c(nc(N)c(c1C)C)N,5,25,?C
CC1=NC(N)=C(C)C(N)=N1,"4,6-diamino-2,5-dimethylpyrimidine",7.08,Log unit,n1c(nc(N)c(c1N)C)C,6,25,?C
CCOC(=O)C1=C(N)N=C(N)N=C1,"2,4-diamino-5-ethoxycarbonylpyrimidine",5.07,Log unit,n1cc(c(N)nc1N)C(=O)OCC,6,25,?C
CCCCC1=C(N)N=C(N)N=C1C,"2,4-diamino-5-isobutyl-6-methylpyrimidine",8.06,Log unit,n1c(nc(N)c(c1C)CCCC)N,5,25,?C
NC1=CC([S-])=NC(N)=N1,"2,4-diamino-6-mercaptopyrimidine",10.2,Log unit,[S-]c1nc(nc(c1)N)N,6,25,?C
NC1=C(N)C([S-])=NC=N1,"4,5-diamino-6-mercaptopyrimidine",9.33,Log unit,[S-]c1ncnc(c1N)N,6,25,?C
Nc1cc(N)[n+]c([S-])n1,"4,6-Diamino-2-mercaptopyrimidine",5.32,Log unit,[S-]c1[n+]c(N)cc(n1)N,n,25,?C
COC1=C(N)N=C(N)N=C1,"2,4-diamino-5-methoxypyrimidine",7.23,Log unit,n1cc(OC)c(N)nc1N,6,25,?C
COC1=NC(N)=NC(N)=C1,"2,4-diamino-6-methoxypyrimidine",5.48,Log unit,n1c(nc(N)cc1OC)N,5,25,?C
COC1=CC=C(SC2=CN=C(N)N=C2N)C=C1,"2,4-diamino-5-(p-methoxyphenylthio)pyrimidine",5.94,Log unit,n1cc(Sc2ccc(cc2)OC)c(nc1N)N,6,25,?C
CC1=C(N)N=C(N)N=C1,"2,4-diamino-5-methylpyrimidine",7.69,Log unit,n1cc(C)c(N)nc1N,6,25,?C
CC1=NC(N)=NC(N)=C1COC1=CC=CC=C1,"2,4-diamino-6-methyl-5-phenoxypyrimidine",6.47,Log unit,n1c(c(COc2ccccc2)c(nc1N)N)C,5,25,?C
CN(C)CCN(CC1=CC=CS1)C1=NC=CC=C1,2-[(2-dimethylaminoethyl)-2-thienylamino]-pyridine,8.88,Log unit,N(CCN(Cc1sccc1)c1ncccc1)(C)C,2,25,?C
CN(C)CCN(CC1=CSC=C1)C1=NC=CC=C1,2-[(2-dimethylaminoethyl)-3-thienylamino]-pyridine,8.93,Log unit,N(CCN(Cc1cscc1)c1ncccc1)(C)C,2,25,?C
C[N+](C)CCN(CC1=CSC=C1)C1=NC=CC=C1,2-[(2-dimethylaminoethyl)-3-thienylamino]-pyridine,3.94,Log unit,n1c(N(Cc2cscc2)CC[N+](C)C)cccc1,n,25,?C
C[N+](C)CC1=CN=CC=C1,3-(DIMETHYLAMINOMETHYL)PYRIDINE,3.17,Log unit,n1cccc(c1)C[N+](C)C,n,25,?C
C[N+](C)CC1=CC=NC=C1,4-(DIMETHYLAMINOMETHYL)PYRIDINE,3.39,Log unit,n1ccc(C[N+](C)C)cc1,n,25,?C
C[N+](C)C1=CC=C(C=C1)N=NC1=CC=CC=N1,2-(4-dimethylamino)phenylazopyridine,2,Log unit,n1ccccc1N=Nc1ccc([N+](C)C)cc1,n,25,?C
C1=CN=C(C=C1)C1=CC=CC(=N1)C1=CC=CC=N1,"2,6-Di(2-pyridyl)pyridine",4.33,Log unit,n1ccccc1c1nc(ccc1)c1ncccc1,1,25,?C
[O-]C1=NC=CC=C1,2-hydroxypyridine,11.8,Log unit,[O-]c1ncccc1,n,25,?C
Oc1cccc[n+]1,2-hydroxypyridine,0.75,Log unit,Oc1[n+]cccc1,oh,25,?C
[O-]C1=CC=NC=C1,4-hydroxypyridine,11.12,Log unit,[O-]c1ccncc1,n,25,?C
Oc1cc[n+]cc1,4-hydroxypyridine,3.2,Log unit,Oc1cc[n+]cc1,oh,25,?C
NNC(=O)C1=CN=CC=C1,3-hydrazinocarbonylpyridine,3.29,Log unit,NNC(=O)c1cnccc1,n,25,?C
NNC(=O)c1ccc[n+]c1,3-hydrazinocarbonylpyridine,1.86,Log unit,NNC(=O)c1c[n+]ccc1,4,25,?C
NNC(=O)c1cc[n+]cc1,4-hydrazinocarbonylpyridine,1.785,Log unit,NNC(=O)c1cc[n+]cc1,4,25,?C
Sc1[n+]cccc1N(=O)=O,2-mercapto-3-nitropyridine,-2.49,Log unit,Sc1[n+]cccc1N(=O)=O,sh,25,?C
[S-]C1=NC=CC=C1N(=O)=O,2-mercapto-3-nitropyridine,6.9,Log unit,[S-]c1ncccc1N(=O)=O,n,25,?C
OCC1=C(O)C=CC=N1,3-hydroxy-2-hydroxymethylpyridine,9.07,Log unit,Oc1c(nccc1)CO,1,25,?C
CC1=C(O)C(C)=C(CO)C=N1,"3-hydroxy-5-hydroxymethyl-2,4-dimethylpyridine",9.98,Log unit,Oc1c(ncc(c1C)CO)C,2,25,?C
Sc1cccc[n+]1,2-Mercaptopyridine,-1.07,Log unit,Sc1[n+]cccc1,sh,25,?C