Smiles,Name,pKa,pKa Unit,Ionizable center smiles,IC group,Temperature,Temperature Unit
OC1CCC(CC1[N+]([O-])=O)[N+]([O-])=O,"NSC1532 2,4-bis(hydroxy(oxido)amino)phenol",4.09,Log unit,OC1CCC(CC1[N+](=O)[O-])[N+](=O)[O-],,,-
OC1CCCCC1C1CCCCC1,"NSC1548 [1,1'-biphenyl]-2-ol",9.97,Log unit,OC1C(C2CCCCC2)CCCC1,,,-
CC1CCC(O)CC1C,"NSC1549 3,4-dimethylphenol",10.4,Log unit,OC1CCC(C(C)C1)C,,,-
OC1CCCC(C1)[N+]([O-])=O,NSC1551 3-(hydroxy(oxido)amino)phenol,8.36,Log unit,OC1CC([N+](=O)[O-])CCC1,,,-
OC1CCCCC1[N+]([O-])=O,NSC1552 2-(hydroxy(oxido)amino)phenol,7.23,Log unit,OC1C([N+](=O)[O-])CCCC1,,,-
CCOC1CCCCC1O,NSC1809 2-ethoxyphenol,10.1,Log unit,OC1C(OCC)CCCC1,,,-
OC1CCC(CC1)C1CCCCC1,"NSC1858 [1,1'-biphenyl]-4-ol",9.55,Log unit,OC1CCC(C2CCCCC2)CC1,,,-
CC(C)C1CCC(O)CC1,NSC1888 4-isopropylphenol,10.2,Log unit,OC1CCC(C(C)C)CC1,,,-
CC1CC(CC(C1O)[N+]([O-])=O)[N+]([O-])=O,"NSC2082 2,4-bis(hydroxy(oxido)amino)-6-methylphenol",4.31,Log unit,OC1C(CC(CC1[N+](=O)[O-])[N+](=O)[O-])C,,,-
CC1CCCC(C)C1O,"NSC2123 2,6-dimethylphenol",10.6,Log unit,OC1C(C)CCCC1C,,,-
OC1CCC(CC1)C=O,NSC2127 4-hydroxybenzaldehyde,7.61,Log unit,OC1CCC(C=O)CC1,,,-
OC1C(Br)CC(Br)CC1Br,"NSC2136 2,4,6-tribromophenol",6.8,Log unit,OC1C(CC(CC1Br)Br)Br,,,-
COC1CCCC(C=O)C1O,NSC2150 2-hydroxy-3-methoxybenzaldehyde,7.91,Log unit,OC1C(C=O)CCCC1OC,,,-
OC1C(Cl)CC(Cl)CC1Cl,"NSC2165 2,4,6-trichlorophenol",6.23,Log unit,OC1C(Cl)CC(Cl)CC1Cl,,,-
CC(C)C1CCCC(O)C1,NSC2209 3-isopropylphenol,10.2,Log unit,OC1CC(C(C)C)CCC1,,,-
OC1C(Cl)CC(Cl)C(Cl)C1Cl,"NSC2428 2,3,4,6-tetrachlorophenol",5.22,Log unit,OC1C(C(Cl)C(CC1Cl)Cl)Cl,,,-
CC(=O)C1CCCC(O)C1,NSC2440 1-(3-hydroxyphenyl)ethanone,9.25,Log unit,OC1CC(C(=O)C)CCC1,,,-
CC1CCC(C)C(O)C1,"NSC2599 2,5-dimethylphenol",10.4,Log unit,OC1C(C)CCC(C1)C,,,-
CC1CC(Cl)CCC1O,NSC2851 4-chloro-2-methylphenol,9.71,Log unit,OC1C(C)CC(CC1)Cl,,,-
OC1CCCCC1Cl,NSC2870 2-chlorophenol,8.56,Log unit,OC1C(CCCC1)Cl,,,-
OC1CCC(Cl)CC1,NSC2877 4-chlorophenol,9.41,Log unit,OC1CCC(Cl)CC1,,,-
CC1CCCC(Cl)C1O,NSC2878 2-chloro-6-methylphenol,8.69,Log unit,OC1C(C)CCCC1Cl,,,-
OC1CCC(Cl)CC1Cl,"NSC2879 2,4-dichlorophenol",7.89,Log unit,OC1C(Cl)CC(CC1)Cl,,,-
OC1C(CC(CC1[N+]([O-])=O)[N+]([O-])=O)C1CCCCC1,"NSC2880 3,5-bis(hydroxy(oxido)amino)[1,1'-biphenyl]-2-ol",3.85,Log unit,OC1C(CC([N+](=O)[O-])CC1[N+](=O)[O-])C1CCCCC1,,,-
NC(=O)C1CCCCC1O,NSC3115 salicylamide,8.37,Log unit,OC1C(C(=O)N)CCCC1,,,-
CC1CCC(C(O)C1)[N+]([O-])=O,NSC3142 2-(hydroxy(oxido)amino)-5-methylphenol,7.41,Log unit,OC1C([N+](=O)[O-])CCC(C)C1,,,-
OC1CCC(CC1)\N=N\C1CCCCC1,NSC3177 4-(phenyldiazenyl)phenol,8.2,Log unit,OC1CCC(CC1)N=NC1CCCCC1,,,-
OC1CCCC(C1)C=O,NSC3504 3-hydroxybenzaldehyde,8.98,Log unit,OC1CC(C=O)CCC1,,,-
CC1CCC(O)CC1,NSC3696 p-cresol,10.3,Log unit,OC1CCC(CC1)C,,,-
CC(=O)C1CCC(O)CC1,NSC3698 1-(4-hydroxyphenyl)ethanone,8.05,Log unit,OC1CCC(C(=O)C)CC1,,,-
OCC1CCCCC1O,NSC3814 2-(hydroxymethyl)phenol,9.84,Log unit,OC1C(CO)CCCC1,,,-
COC1CCCCC1O,NSC3815 2-methoxyphenol,9.98,Log unit,OC1C(OC)CCCC1,,,-
CC1CCC(O)C(C)C1,"NSC3829 2,4-dimethylphenol",10.6,Log unit,OC1C(C)CC(CC1)C,,,-
CC(=O)NC1CCC(O)CC1,NSC3991 N-(4-hydroxyphenyl)acetamide,9.38,Log unit,OC1CCC(NC(=O)C)CC1,,,-
OC1C(Cl)CC(CC1Cl)[N+]([O-])=O,"NSC4123 2,6-dichloro-4-(hydroxy(oxido)amino)phenol",3.55,Log unit,OC1C(CC([N+](=O)[O-])CC1Cl)Cl,,,-
CC1CC(O)CCC1Cl,NSC4166 4-chloro-3-methylphenol,9.55,Log unit,OC1CCC(C(C)C1)Cl,,,-
CCOC1CCCC(O)C1,NSC4875 3-ethoxyphenol,9.65,Log unit,OC1CC(OCC)CCC1,,,-
COC1CCC(O)CC1,NSC4960 4-methoxyphenol,10.1,Log unit,OC1CCC(OC)CC1,,,-
CC(C)C1CC(Cl)C(C)CC1O,NSC4964 4-chloro-2-isopropyl-5-methylphenol,9.98,Log unit,OC1C(C(C)C)CC(C(C)C1)Cl,,,-
CCC(C)(C)C1CCC(O)CC1,NSC4965 4-tert-pentylphenol,10.4,Log unit,OC1CCC(C(C)(CC)C)CC1,,,-
COC1CC(C)CCC1O,NSC4969 2-methoxy-4-methylphenol,10.3,Log unit,OC1C(OC)CC(CC1)C,,,-
OC1CCC(Br)CC1,NSC4970 4-bromophenol,9.17,Log unit,OC1CCC(CC1)Br,,,-
CC1CC(O)CC(C)C1Cl,"NSC4971 4-chloro-3,5-dimethylphenol",9.7,Log unit,OC1CC(C)C(Cl)C(C1)C,,,-
CC(C)C1CCCCC1O,NSC5103 2-isopropylphenol,10.5,Log unit,OC1C(C(C)C)CCCC1,,,-
CC(C)C1CCCC(C(C)C)C1O,"NSC5105 2,6-diisopropylphenol",11.1,Log unit,OC1C(C(C)C)CCCC1C(C)C,,,-
CC1CC(C)C(C)C(O)C1,"NSC5296 2,3,5-trimethylphenol",10.7,Log unit,OC1CC(C)CC(C1C)C,,,-
CC1CC(C)C(O)C(C)C1,"NSC5353 2,4,6-trimethylphenol",10.9,Log unit,OC1C(C)CC(C)CC1C,,,-
CC1CCC(O)C(C1)[N+]([O-])=O,NSC5387 2-(hydroxy(oxido)amino)-4-methylphenol,7.6,Log unit,OC1C([N+](=O)[O-])CC(CC1)C,,,-
OC1C(Br)C(Br)C(Br)C(Br)C1Br,"NSC5717 2,3,4,5,6-pentabromophenol",4.62,Log unit,OC1C(C(C(C(C1Br)Br)Br)Br)Br,,,-
OC1C(CC(Cl)CC1[N+]([O-])=O)[N+]([O-])=O,"NSC6212 4-chloro-2,6-bis(hydroxy(oxido)amino)phenol",2.96,Log unit,OC1C([N+](=O)[O-])CC(CC1[N+](=O)[O-])Cl,,,-
OC1CCC(Br)CC1Br,"NSC6213 2,4-dibromophenol",7.79,Log unit,OC1C(CC(CC1)Br)Br,,,-
OC1C(Br)CCCC1Br,"NSC6214 2,6-dibromophenol",6.67,Log unit,OC1C(CCCC1Br)Br,,,-
OC1C(CCCC1[N+]([O-])=O)[N+]([O-])=O,"NSC6215 2,6-bis(hydroxy(oxido)amino)phenol",3.97,Log unit,OC1C([N+](=O)[O-])CCCC1[N+](=O)[O-],,,-
OC1CC(Cl)CCC1Cl,"NSC6296 2,5-dichlorophenol",7.51,Log unit,OC1C(Cl)CCC(C1)Cl,,,-
COC1CC(CCC1O)\C=C\C,NSC6769 2-methoxy-4-(1-propenyl)phenol,9.88,Log unit,OC1CCC(CC1OC)C=CC,,,-
OC1CCCCC1Br,NSC6970 2-bromophenol,8.45,Log unit,OC1C(CCCC1)Br,,,-
OC1C(CC(CC1[N+]([O-])=O)[N+]([O-])=O)C1CCCCC1,"NSC7739 2-cyclohexyl-4,6-bis(hydroxy(oxido)amino)phenol",4.52,Log unit,OC1C(CC([N+](=O)[O-])CC1[N+](=O)[O-])C1CCCCC1,,,-
CC1CCCC(O)C1,NSC8768 m-cresol,10.1,Log unit,OC1CC(C)CCC1,,,-
CCC1CCCC(O)C1,NSC8873 3-ethylphenol,9.9,Log unit,OC1CC(CC)CCC1,,,-
CCC1CC(C)CC(O)C1,NSC8885 3-ethyl-5-methylphenol,10.1,Log unit,OC1CC(CC(CC)C1)C,,,-
COC1CC(CC=C)CCC1O,NSC8895 4-allyl-2-methoxyphenol,10.2,Log unit,OC1CCC(CC1OC)CC=C,,,-
CC1CC(C)CC(O)C1,"NSC9268 3,5-dimethylphenol",10.2,Log unit,OC1CC(CC(C)C1)C,,,-
OC1CCCC(C1)C(F)(F)F,NSC9884 3-(trifluoromethyl)phenol,8.95,Log unit,OC1CC(C(F)(F)F)CCC1,,,-
CCOC1CCC(O)CC1,NSC9885 4-ethoxyphenol,10.1,Log unit,OC1CCC(OCC)CC1,,,-
CCC1CCCCC1O,NSC10112 2-ethylphenol,10.2,Log unit,OC1C(CC)CCCC1,,,-
OC1CC(F)CCC1[N+]([O-])=O,NSC10284 5-fluoro-2-(hydroxy(oxido)amino)phenol,6.07,Log unit,OC1C([N+](=O)[O-])CCC(F)C1,,,-
OC1CCCCC1F,NSC10294 2-fluorophenol,8.7,Log unit,OC1C(F)CCCC1,,,-
OC1CCC(F)CC1,NSC10295 4-fluorophenol,9.91,Log unit,OC1CCC(F)CC1,,,-
CC(C)C1CCC(C)CC1O,NSC11215 thymol,10.6,Log unit,OC1C(C(C)C)CCC(C)C1,,,-
CC1CCC(CC1O)[N+]([O-])=O,NSC12987 5-(hydroxy(oxido)amino)-2-methylphenol,8.59,Log unit,OC1CC([N+](=O)[O-])CCC1C,,,-
OC1CCCCC1C(=O)NC1CCCCC1,NSC14881 2-hydroxy-N-phenylbenzamide,7.4,Log unit,OC1C(C(=O)NC2CCCCC2)CCCC1,,,-
COC1CC(CCC1O)C=O,NSC15351 4-hydroxy-3-methoxybenzaldehyde,7.4,Log unit,OC1CCC(CC1OC)C=O,,,-
OC1CCCC(C1)C1CCCCC1,"NSC17588 [1,1'-biphenyl]-3-ol",9.64,Log unit,OC1CC(CCC1)C1CCCCC1,,,-
OC1C(F)C(F)C(F)C(F)C1F,"NSC21627 2,3,4,5,6-pentafluorophenol",5.53,Log unit,OC1C(F)C(C(F)C(C1F)F)F,,,-
COC1CCCC(O)C1,NSC21735 3-methoxyphenol,9.65,Log unit,OC1CC(OC)CCC1,,,-
OC1CCCCC1C(=O)NC1CCC(Cl)CC1,NSC22902 N-(4-chlorophenyl)-2-hydroxybenzamide,7.3,Log unit,OC1C(C(=O)NC2CCC(CC2)Cl)CCCC1,,,-
CC1CCCCC1O,NSC23076 o-cresol,10.3,Log unit,OC1C(C)CCCC1,,,-
SC1C[NH2+]C2CCCCC2C1,3-mercaptoquinoline,2.3,Log unit,SC1[CH][NH2+]C2[CH][CH][CH][CH]C2[CH]1,sh,25,?C
SC1CC[NH2+]C2CCCCC12,4-mercaptoquinoline,0.77,Log unit,SC1[CH][CH][NH2+]C2C1[CH][CH][CH][CH]2,sh,25,?C
[S-]C1=CC=NC2=C1C=CC=C2,4-mercaptoquinoline,8.87,Log unit,n1ccc([S-])c2ccccc12,n,25,?C
[S-]C1=CC=CC2=C1C=CC=N2,5-mercaptoquinoline,6.52,Log unit,n1c2c(c([S-])ccc2)ccc1,n,25,?C
SC1CCC2[NH2+]CCCC2C1,6-mercaptoquinoline,3.91,Log unit,SC1[CH][CH]C2[NH2+][CH][CH][CH]C2[CH]1,sh,25,?C
[S-]C1=CC=C2N=CC=CC2=C1,6-mercaptoquinoline,6.5,Log unit,n1c2ccc([S-])cc2ccc1,n,25,?C
SC1CCCC2CCC[NH2+]C12,8-Mercaptoquinoline,2.015,Log unit,SC1[CH][CH][CH]C2C1[NH2+][CH][CH][CH]2,sh,25,?C
[S-]C1=CC=CC2=C1N=CC=C2,8-Mercaptoquinoline,8.33,Log unit,n1c2c([S-])cccc2ccc1,n,25,?C
CC1CC(S)C2[NH2+]CCC(C)C2C1,"8-mercapto-4,6-dimethylquinoline",2.3,Log unit,SC1[CH]C([CH]C2C1[NH2+][CH][CH]C2C)C,sh,25,?C
CC1=CC2=C(N=CC=C2C)C([S-])=C1,"8-mercapto-4,6-dimethylquinoline",9.3,Log unit,n1c2c([S-])cc(cc2c(cc1)C)C,n,25,?C
CC1CCC2CCCC(S)C2[NH2+]1,8-mercapto-2-methylquinoline,2.28,Log unit,SC1[CH][CH][CH]C2C1[NH2+]C([CH][CH]2)C,sh,25,?C
CC1CC[NH2+]C2C(S)CCCC12,8-mercapto-4-methylquinoline,2.07,Log unit,SC1[CH][CH][CH]C2C1[NH2+][CH][CH]C2C,sh,25,?C
CC1=CC=NC2=C1C=CC=C2[S-],8-mercapto-4-methylquinoline,9.1,Log unit,n1c2c([S-])cccc2c(cc1)C,n,25,?C
CC1CC(S)C2[NH2+]CCCC2C1,8-mercapto-6-methylquinoline,2.11,Log unit,SC1[CH]C([CH]C2C1[NH2+][CH][CH][CH]2)C,sh,25,?C
CC1=CC2=C(N=CC=C2)C([S-])=C1,8-mercapto-6-methylquinoline,8.49,Log unit,n1c2c([S-])cc(cc2ccc1)C,n,25,?C
CC1CCC2CCC[NH2+]C2C1S,8-mercapto-7-methylquinoline,2.25,Log unit,SC1C([CH][CH]C2C1[NH2+][CH][CH][CH]2)C,sh,25,?C
CC1=C([S-])C2=C(C=CC=N2)C=C1,8-mercapto-7-methylquinoline,9.27,Log unit,n1c2c([S-])c(ccc2ccc1)C,n,25,?C
SC1CCCC2CCC([NH2+]C12)C1=CC=CC=C1,8-mercapto-2-phenylquinoline,1.28,Log unit,SC1[CH][CH][CH]C2C1[NH2+]C([CH][CH]2)c1ccccc1,sh,25,?C
[S-]C1=CC=CC2=C1N=C(C=C2)C1=CC=CC=C1,8-mercapto-2-phenylquinoline,7.87,Log unit,n1c2c([S-])cccc2ccc1c1ccccc1,n,25,?C
[O-]S(=O)(=O)C1CCC(S)C2[NH2+]CCCC12,8-mercapto-5-sulphoquinoline,0.92,Log unit,SC1[CH][CH]C(S(=O)(=O)[O-])C2C1[NH2+][CH][CH][CH]2,sh,25,?C
[O-]S(=O)(=O)C1=CC=C([S-])C2=C1C=CC=N2,8-mercapto-5-sulphoquinoline,7.63,Log unit,n1c2c([S-])ccc(S(=O)(=O)[O-])c2ccc1,n,25,?C
CC1CCC2C([NH2+]1)C(O)C(CC2S([O-])(=O)=O)N(=O)=O,2-methyl-8-hydroxy-7-nitro-5-sulphoquinoline,0.7,Log unit,OC1C([CH]C(S(=O)(=O)[O-])C2[CH][CH]C(C)[NH2+]C12)N(=O)=O,oh,25,?C
CC1=NC2=C(C=C1)C(=CC(=C2[O-])N(=O)=O)S([O-])(=O)=O,2-methyl-8-hydroxy-7-nitro-5-sulphoquinoline,6.24,Log unit,n1c2c(c(S(=O)(=O)[O-])cc(c2[O-])N(=O)=O)ccc1C,n,25,?C
COC1=NC2=CC=CC=C2C=C1,2-methoxyquinoline,3.16,Log unit,n1c2ccccc2ccc1OC,n,25,?C
COC1=CC=NC2=C1C=CC=C2,4-Methoxyquinoline,6.45,Log unit,n1ccc(OC)c2c1cccc2,n,25,?C
COC1=CC2=C(C=C1)N=CC=C2,6-Methoxyquinoline,5.03,Log unit,n1cccc2c1ccc(OC)c2,n,25,?C
COC1=CC=CC2=C1N=CC=C2,8-Methoxyquinoline,5,Log unit,n1cccc2c1c(ccc2)OC,n,25,?C
COC1=CC=CC2=C1N=C(C)C=C2,8-methoxy-2-methylquinoline,5.7,Log unit,n1c(ccc2c1c(ccc2)OC)C,n,25,?C
COC(=O)C1=NC2=CC=CC=C2C=C1,2-methoxycarbonylquinoline,1.7545,Log unit,n1c2ccccc2ccc1C(=O)OC,n,25,?C
COC(=O)C1=CC2=C(C=C1)N=CC=C2,6-methoxycarbonylquinoline,3.8,Log unit,n1cccc2c1ccc(C(=O)OC)c2,n,25,?C
CC1=NC2=C(C=CC=C2)C=C1,2-METHYLQUINOLINE,5.7,Log unit,n1c(ccc2c1cccc2)C,n,25,?C
CC1=CC2=C(C=CC=C2)N=C1,3-METHYLQUINOLINE,5.155,Log unit,n1cc(cc2c1cccc2)C,n,25,?C
CC1=CC=NC2=C1C=CC=C2,4-METHYLQUINOLINE,5.63,Log unit,n1ccc(C)c2c1cccc2,n,25,?C
CC1=CC=CC2=C1C=CC=N2,5-Methylquinoline,4.91,Log unit,n1cccc2c1cccc2C,n,25,?C
CC1=CC2=C(C=C1)N=CC=C2,6-Methylquinoline,5.185,Log unit,n1cccc2c1ccc(C)c2,n,25,?C
CC1=CC2=C(C=CC=N2)C=C1,7-methylquinoline,5.315,Log unit,n1cccc2c1cc(cc2)C,n,25,?C
CC1=CC=CC2=C1N=CC=C2,8-Methylquinoline,4.98,Log unit,n1cccc2c1c(ccc2)C,n,25,?C
ON=CC1=CC=NC2=C1C=CC=C2,4-aldoximequinoline,4.52,Log unit,n1ccc(C=NO)c2ccccc12,n,25,?C
CSC1=CC=CC2=C1N=C(C)C=C2,2-methyl-8-methylthioquinoline,4.08,Log unit,n1c2c(SC)cccc2ccc1C,n,25,?C
NC1=CC(N)=C(O)C2=C1C=CC=N2,"5,7-diamino-8-hydroxyquinoline",6.96,Log unit,n1cccc2c1c(O)c(cc2N)N,n,25,?C
NC1=CC(N)=C(O)C2=C1C=CC=N2,"5,7-diamino-8-hydroxyquinoline",10.83,Log unit,Oc1c2ncccc2c(cc1N)N,oh,25,?C
CC1=NC(C)=C2C=CC=CC2=N1,"2,4-dimethylquinazoline",3.58,Log unit,n1c(nc2ccccc2c1C)C,n,25,?C
OC1=CC=CC2=NC=NC=C12,5-hydroxyquinazoline,7.41,Log unit,Oc1c2cncnc2ccc1,oh,25,?C
OC1=CC2=CN=CN=C2C=C1,6-hydroxyquinazoline,8.21,Log unit,Oc1cc2cncnc2cc1,oh,25,?C
OC1=CC2=NC=NC=C2C=C1,7-hydroxyquinazoline,7.39,Log unit,Oc1cc2ncncc2cc1,oh,25,?C
OC1=CC=CC2=CN=CN=C12,8-Hydroxyquinazoline,8.67,Log unit,Oc1c2ncncc2ccc1,oh,25,?C
CC1=NC(C)=C2C=CC=C(O)C2=N1,"8-hydroxy-2,4-dimethylquinazoline",3.79,Log unit,n1c(nc2c(cccc2c1C)O)C,n,25,?C
CC1=NC(C)=C2C=CC=C(O)C2=N1,"8-hydroxy-2,4-dimethylquinazoline",9.41,Log unit,Oc1c2nc(nc(C)c2ccc1)C,oh,25,?C
CC1=C2C=CC=C(O)C2=NC=N1,8-hydroxy-4-methylquinazoline,8.7,Log unit,Oc1c2ncnc(C)c2ccc1,oh,25,?C
C1=CC2=C(C=C1)N=CC=N2,Quinoxaline,0.4,Log unit,n1ccnc2ccccc12,n,25,?C
COC1=NC2=C(C=CC=C2)N=C1OC,"2,3-dimethoxyquinoxaline",-0.85,Log unit,n1c(OC)c(OC)nc2ccccc12,n,25,?C
OC1=CC=CC2=C1N=CC=N2,5-hydroxyquinoxaline,0.9,Log unit,n1ccnc2c(O)cccc12,n,25,?C
OC1=CC=CC2=C1N=CC=N2,5-hydroxyquinoxaline,8.68,Log unit,Oc1c2nccnc2ccc1,oh,25,?C
OC1=CC2=C(C=C1)N=CC=N2,6-hydroxyquinoxaline,7.94,Log unit,Oc1cc2nccnc2cc1,oh,25,?C
CCC1=C2C=CC=CC2=NC=N1,4-ethylquinazoline,2.895,Log unit,n1cnc2ccccc2c1CC,n,25,?C
CCSC1=CC2=C(C=C1)C=NC=N2,7-ethylthioquinazoline,3.11,Log unit,n1c2cc(SCC)ccc2cnc1,n,25,?C
CC(C)C1=NC=NC2=CC=CC=C12,4-isopropylquinazoline,2.885,Log unit,n1c(c2ccccc2nc1)C(C)C,n,25,?C
COC1=C(C)C2=C(C=C1)C=NC=N2,7-methoxy-8-methylquinazoline,3.78,Log unit,n1cncc2c1c(c(cc2)OC)C,n,25,?C
C1=CC2=C(C=NC=N2)N=C1,"1,3,5-triazanaphthalene",1.36,Log unit,n1cncc2c1cccn2,n,25,?C
C1=CC2=C(C=N1)N=CN=C2,"1,3,7-triazanaphthalene",1.81,Log unit,n1cncc2c1cncc2,n,25,?C
C1=CC2=C(N=C1)N=CN=C2,"1,3,8-triazanaphthalene",1,Log unit,n1cncc2c1nccc2,n,25,?C
CC1=NC2=C(C=CN=C2)N=C1,"3-methyl-1,4,6-triazanaphthalene",3.315,Log unit,n1cc(nc2c1ccnc2)C,n,25,?C
C1=CC2=CC3=CC=CC=C3N=C2C=C1,acridine,5.15,Log unit,n1c2ccccc2cc2c1cccc2,n,25,?C
NC1=CC=CC2=NC3=CC=CC=C3C=C12,1-aminoacridine,6,Log unit,n1c2ccccc2cc2c1cccc2N,n,25,?C
NC1=CC2=CC3=CC=CC=C3N=C2C=C1,2-aminoacridine,5.84,Log unit,n1c2ccccc2cc2c1ccc(c2)N,n,25,?C
NC1=CC2=NC3=CC=CC=C3C=C2C=C1,3-aminoacridine,8,Log unit,n1c2ccccc2cc2c1cc(N)cc2,n,25,?C
NC1=CC=CC2=CC3=CC=CC=C3N=C12,4-aminoacridine,4.36,Log unit,n1c2ccccc2cc2c1c(ccc2)N,n,25,?C
NC1=C2C=CC=CC2=NC2=CC=CC=C12,9-AMINOACRIDINE,9.95,Log unit,n1c2ccccc2c(N)c2c1cccc2,n,25,?C
NC1=CC2=NC3=C(C=C(C=C3)C([O-])=O)C=C2C=C1,3-amino-7-carboxyacridine,8,Log unit,n1c2c(ccc(c2)N)cc2cc(ccc12)C(=O)[O-],n,25,?C
NC1=CC2=C(C=C1)C=C1C=CC(Cl)=CC1=N2,3-amino-6-chloroacridine,7.22,Log unit,n1c2cc(Cl)ccc2cc2c1cc(cc2)N,n,25,?C
NC1=CC2=NC3=CC=C(Cl)C=C3C=C2C=C1,3-amino-7-chloroacridine,6.91,Log unit,n1c2ccc(Cl)cc2cc2c1cc(N)cc2,n,25,?C
NC1=CC2=C(C=C1)C(Cl)=C1C=CC=CC1=N2,3-amino-9-chloroacridine,6.7,Log unit,n1c2c(c(Cl)c3ccc(N)cc13)cccc2,n,25,?C
NC1=C2C(O)=CC=CC2=NC2=CC=CC=C12,9-amino-1-hydroxyacridine,5.785,Log unit,Oc1c2c(c3ccccc3nc2ccc1)N,oh,25,?C
NC1=C2C=CC(O)=CC2=NC2=CC=CC=C12,9-amino-3-hydroxyacridine,6.885,Log unit,Oc1cc2nc3ccccc3c(N)c2cc1,oh,25,?C
COC(=O)C1=CC2=C(C=C1)N=C1C=C(N)C=CC1=C2,3-amino-7-methoxycarbonylacridine,7.1,Log unit,n1c2c(ccc(c2)N)cc2cc(ccc12)C(=O)OC,n,25,?C
NC1=C2C=CC=CC2=NC2=CC(Cl)=CC=C12,9-amino-3-chloroacridine,9.29,Log unit,n1c2cc(Cl)ccc2c(N)c2ccccc12,n,25,?C
COC1=CC2=C(C=C1)N=C1C=C(Cl)C=CC1=C2N,9-amino-3-chloro-7-methoxyacridine,8.94,Log unit,n1c2cc(ccc2c(c2cc(ccc12)OC)N)Cl,n,25,?C
COC1=CC2=C(N)C3=CC=CC=C3N=C2C=C1,9-amino-2-methoxyacridine,9.61,Log unit,n1c2ccccc2c(N)c2c1ccc(c2)OC,n,25,?C
CC1=C2N=C3C(N)=CC=CC3=CC2=CC=C1,4-amino-5-methylacridine,3.9,Log unit,n1c2c(cccc2cc2c1c(ccc2)N)C,n,25,?C
CC1=CC=CC2=C(N)C3=CC=CC=C3N=C12,9-amino-4-methylacridine,10.24,Log unit,n1c2ccccc2c(N)c2c1c(ccc2)C,n,25,?C
NC1=C2CCCCC2=NC2=CC=CC=C12,"9-amino-1,2,3,4-tetrahydroacridine",9.95,Log unit,n1c2ccccc2c(N)c2c1CCCC2,n,25,?C
[O-]C(=O)C1=CC2=CC3=CC=CC=C3N=C2C=C1,2-carboxyacridine,5.4,Log unit,n1c2ccccc2cc2c1ccc(c2)C(=O)[O-],n,25,?C
OC(=O)C1CCC2[NH2+]C3CCCCC3CC2C1,2-carboxyacridine,2.9,Log unit,OC(=O)C1[CH]C2[CH]C3[CH][CH][CH][CH]C3[NH2+]C2[CH][CH]1,co2h,25,?C
[O-]C(=O)C1=CC=CC2=CC3=CC=CC=C3N=C12,4-carboxyacridine,7.7,Log unit,n1c2ccccc2cc2c1c(ccc2)C(=O)[O-],n,25,?C
OC(=[O-])C1=C2C=CC=CC2=NC2=CC=CC=C12,9-carboxyacridine,5,Log unit,n1c2ccccc2c(c2c1cccc2)C(=[O-])O,n,25,?C
NC1=CC2=C(C=C1)N=C1C=C(N)C=CC1=C2,"2,6-diaminoacrdine",8.06,Log unit,n1c2c(ccc(c2)N)cc2cc(ccc12)N,n,25,?C
NC1=CC2=CC3=C(C=CC(N)=C3)N=C2C=C1,"2,7-Diaminoacridine",6.14,Log unit,n1c2ccc(cc2cc2c1ccc(N)c2)N,n,25,?C
NC1=CC2=NC3=C(C=CC(N)=C3)C=C2C=C1,"3,6-Diaminoacridine",9.625,Log unit,n1c2c(ccc(c2)N)cc2ccc(N)cc12,n,25,?C
NC1=CC2=CC3=C(C=C(N)C=C3)N=C2C=C1,"3,7-diaminoacridine",8.11,Log unit,n1c2ccc(cc2cc2c1cc(cc2)N)N,n,25,?C
NC1=CC2=NC3=CC=CC=C3C(N)=C2C=C1,"3,9-Diaminoacridine",11.46,Log unit,n1c2ccccc2c(N)c2c1cc(N)cc2,n,25,?C
NC1=CC=CC2=CC3=CC=CC(N)=C3N=C12,"4,5-diaminoacridine",2.55,Log unit,n1c2c(cccc2cc2c1c(ccc2)N)N,n,25,?C
CC1=CC=CC2=CC3=CC=CC(C)=C3N=C12,"4,5-dimethylacridine",4.51,Log unit,n1c2c(cccc2cc2c1c(ccc2)C)C,n,25,?C
OC1=CC=CC2=NC3=CC=CC=C3C=C12,1-hydroxyacridine,5.35,Log unit,n1c2ccccc2cc2c1cccc2O,n,25,?C
OC1=CC2=CC3=CC=CC=C3N=C2C=C1,2-Hydroxyacridine,5.22,Log unit,n1c2ccccc2cc2c1ccc(c2)O,n,25,?C
OC1=CC2=CC3=CC=CC=C3N=C2C=C1,2-Hydroxyacridine,8.6,Log unit,Oc1cc2cc3ccccc3nc2cc1,oh,25,?C
OC1=CC=CC2=CC3=CC=CC=C3N=C12,4-hydroxyacridine,5.07,Log unit,n1c2ccccc2cc2c1c(ccc2)O,n,25,?C
OC1=CC=CC2=CC3=CC=CC=C3N=C12,4-hydroxyacridine,9.7,Log unit,Oc1c2nc3ccccc3cc2ccc1,oh,15,?C
COC1=CC2=CC3=CC=CC=C3N=C2C=C1,2-methoxyacridine,5.47,Log unit,n1c2ccccc2cc2c1ccc(c2)OC,n,25,?C
COC1=CC=CC2=CC3=CC=CC=C3N=C12,4-methoxyacridine,5.26,Log unit,n1c2ccccc2cc2c1c(ccc2)OC,n,25,?C
COC(=O)C1=C2C=CC=CC2=NC2=CC=CC=C12,9-methoxycarbonylacridine,3.41,Log unit,n1c2ccccc2c(c2c1cccc2)C(=O)OC,n,25,?C
CCN(CC)CCCC(C)NC1=CC=NC2=C1C=CC(Br)=C2,7-bromo-4-(4-diethylamino-1-methyl)butylaminoquinoline,8.12,Log unit,n1c2cc(Br)ccc2c(cc1)NC(CCCN(CC)CC)C,n,25,?C
OC1=CC=C(Br)C2=C1N=CC=C2,5-Bromo-8-hydroxyquinoline,3.67,Log unit,n1c2c(c(Br)ccc2O)ccc1,n,25,?C
OC1=CC=C(Br)C2=C1N=CC=C2,5-Bromo-8-hydroxyquinoline,9.02,Log unit,Oc1ccc(Br)c2cccnc12,oh,25,?C
CC1=NC2=C(O)C(Br)=CC(=C2C=C1)S([O-])(=O)=O,7-bromo-8-hydroxy-2-methyl-5-sulphoquinoline,3.32,Log unit,n1c2c(c(Br)cc(S(=O)(=O)[O-])c2ccc1C)O,n,25,?C
CC1=NC2=C(O)C(Br)=CC(=C2C=C1)S([O-])(=O)=O,7-bromo-8-hydroxy-2-methyl-5-sulphoquinoline,7.96,Log unit,Oc1c(Br)cc(S(=O)(=O)[O-])c2ccc(nc12)C,oh,25,?C
SC1CCC(Br)C2CCC[NH2+]C12,5-bromo-8-mercaptoquinoline,1.43,Log unit,SC1[CH][CH]C(Br)C2[CH][CH][CH][NH2+]C12,sh,25,?C
[S-]C1=CC=C(Br)C2=C1N=CC=C2,5-bromo-8-mercaptoquinoline,7.3,Log unit,n1c2c(c(Br)ccc2[S-])ccc1,n,25,?C
SC1CC(Br)CC2CCC[NH2+]C12,6-bromo-8-mercaptoquinoline,2.22,Log unit,SC1[CH]C(Br)[CH]C2C1[NH2+][CH][CH][CH]2,sh,25,?C
CSC1=CC=CC2=CC(Br)=CN=C12,3-bromo-8-methylthioquinoline,2.44,Log unit,n1cc(Br)cc2c1c(SC)ccc2,n,25,?C
CSC1=CC=C(Br)C2=C1N=CC=C2,5-bromo-8-methylthioquinoline,2.25,Log unit,n1c2c(c(Br)ccc2SC)ccc1,n,25,?C
OC(=O)C1CCC2CCCCC2[NH2+]1,2-Carboxyquinoline,1,Log unit,OC(=O)C1[NH2+]C2[CH][CH][CH][CH]C2[CH][CH]1,co2h,25,?C
[O-]C(=O)C1=NC2=CC=CC=C2C=C1,2-Carboxyquinoline,4.8,Log unit,n1c2ccccc2ccc1C(=O)[O-],n,25,?C
[O-]C(=O)C1=CC2=C(C=C1)N=CC=C2,6-carboxyquinoline,4.8,Log unit,n1cccc2c1ccc(C(=O)[O-])c2,n,25,?C
OC(=O)C1CCCC2CCC[NH2+]C12,8-Carboxyquinoline,1.82,Log unit,OC(=O)C1C2[NH2+][CH][CH][CH]C2[CH][CH][CH]1,co2h,25,?C
[O-]C(=O)C1=CC=CC2=C1N=CC=C2,8-Carboxyquinoline,6.8,Log unit,n1cccc2c1c(ccc2)C(=O)[O-],n,25,?C
OC1=CC=C(C([O-])=O)C2=C1N=CC=C2,5-carboxy-8-hydroxyquinoline,9.32,Log unit,Oc1c2ncccc2c(cc1)C(=O)[O-],oh,25,?C
OC1=CC=C(C([O-])=O)C2=C1N=CC=C2,5-carboxy-8-hydroxyquinoline,4.8,Log unit,n1cccc2c1c(ccc2C(=O)[O-])O,n,25,?C
ClC1=CN=C2C=CC=CC2=C1,3-Chloroquinoline,2.63,Log unit,n1cc(Cl)cc2c1cccc2,n,25,?C
ClC1=CC=NC2=C1C=CC=C2,4-Chloroquinoline,3.7,Log unit,n1ccc(Cl)c2ccccc12,n,25,?C
ClC1=CC=CC2=C1C=CC=N2,5-Chloroquinoline,3.65,Log unit,n1c2c(c(Cl)ccc2)ccc1,n,25,?C
ClC1=CC=C2N=CC=CC2=C1,6-Chloroquinoline,4.045,Log unit,n1c2ccc(Cl)cc2ccc1,n,25,?C
ClC1=CC=C2C=CC=NC2=C1,7-chloroquinoline,3.85,Log unit,n1c2cc(Cl)ccc2ccc1,n,25,?C
ClC1=CC=CC2=C1N=CC=C2,8-Chloroquinoline,3.12,Log unit,n1c2c(Cl)cccc2ccc1,n,25,?C
CCOC1=CC2=C(C=C1)N=CC=C2Cl,4-chloro-6-ethoxyquinoline,3.82,Log unit,n1ccc(Cl)c2cc(ccc12)OCC,n,25,?C
FC1=CC2=C(C=C1)N=CC=C2Cl,4-chloro-6-fluoroquinoline,2.95,Log unit,n1ccc(Cl)c2cc(F)ccc12,n,25,?C
FC1=CC2=C(C=C1)C(Cl)=CC=N2,4-chloro-7-fluoroquinoline,3.04,Log unit,n1ccc(Cl)c2ccc(F)cc12,n,25,?C
OC1=C2N=CC=CC2=CC=C1Cl,7-chloro-8-hydroxyquinoline,4,Log unit,n1c2c(c(Cl)ccc2ccc1)O,n,25,?C
[S-]C1=CC=C(Cl)C2=C1N=CC=C2,5-chloro-8-mercaptoquinoline,7.34,Log unit,n1c2c(c(Cl)ccc2[S-])ccc1,n,25,?C
COC1=CC2=C(C=C1)N=CC=C2Cl,4-chloro-6-methoxyquinoline,3.93,Log unit,n1ccc(Cl)c2cc(ccc12)OC,n,25,?C