Smiles,Name,pKa,pKa Unit,Ionizable center smiles,IC group,Temperature,Temperature Unit
CCC(NC(N)=O)C(O)=O,alpha-ureido-n-butyric acid,3.8816,Log unit,OC(=O)C(NC(=O)N)CC,,25,?C
[NH3+]CCCC(O)=O,gamma-amino-n-butyric acid,4.02815,Log unit,OC(=O)CCC[NH3+],,25,?C
NCCCC([O-])=O,gamma-amino-n-butyric acid,10.6,Log unit,NCCCC(=O)[O-],,25,?C
NC(=O)NCCCC(O)=O,gamma-ureido-n-butyric acid,4.68345,Log unit,OC(=O)CCCNC(=O)N,,25,?C
CC(C)([NH3+])C(O)=O,alpha-amino-iso-butyric acid,2.3685,Log unit,OC(=O)C([NH3+])(C)C,,25,?C
CC(C)(N)C([O-])=O,alpha-amino-iso-butyric acid,10.2,Log unit,NC(C(=O)[O-])(C)C,,25,?C
CC(C)(NC(N)=O)C(O)=O,alpha-ureido-iso-butyric acid,4.4615,Log unit,OC(=O)C(NC(=O)N)(C)C,,25,?C
CCCC([NH3+])C(O)=O,dl-alpha-amino-n-valeric acid,2.3135,Log unit,OC(=O)C([NH3+])CCC,,25,?C
CCCC(N)C([O-])=O,dl-alpha-amino-n-valeric acid,9.8,Log unit,NC(C(=O)[O-])CCC,,25,?C
CCC([NH3+])CC(O)=O,beta-amino-n-valeric acid,4.02,Log unit,OC(=O)CC([NH3+])CC,,25,?C
CCC(N)CC([O-])=O,beta-amino-n-valeric acid,10.4,Log unit,NC(CC(=O)[O-])CC,,25,?C
[NH3+]CCCCC(O)=O,delta-Amino-n-valeric acid,4.235,Log unit,OC(=O)CCCC[NH3+],,25,?C
NCCCCC([O-])=O,delta-Amino-n-valeric acid,10.76,Log unit,NCCCCC(=O)[O-],,25,?C
CC(C)C([NH3+])C(O)=O,DL-Valine,2.292,Log unit,OC(=O)C([NH3+])C(C)C,,25,?C
CC(C)C(N)C([O-])=O,DL-Valine,9.7,Log unit,NC(C(=O)[O-])C(C)C,,25,?C
CCCCC([NH3+])C(O)=O,DL-Norleucine,2.3295,Log unit,OC(=O)C([NH3+])CCCC,,25,?C
CCCCC(N)C([O-])=O,DL-Norleucine,9.8,Log unit,NC(C(=O)[O-])CCCC,,25,?C
[NH3+]CCCCCC(O)=O,epsilon-amino-n-capronic acid,4.43,Log unit,OC(=O)CCCCC[NH3+],,25,?C
NCCCCCC([O-])=O,epsilon-amino-n-capronic acid,10.78,Log unit,NCCCCCC(=O)[O-],,25,?C
CC(C)CC([NH3+])C(O)=O,DL-Leucine,2.3275,Log unit,OC(=O)C([NH3+])CC(C)C,,25,?C
CC(C)CC(N)C([O-])=O,DL-Leucine,9.7,Log unit,NC(C(=O)[O-])CC(C)C,,25,?C
CCC(C)C([NH3+])C(O)=O,DL-Isoleucine,2.325,Log unit,OC(=O)C([NH3+])C(C)CC,,25,?C
CCC(C)C(N)C([O-])=O,DL-Isoleucine,9.8,Log unit,NC(C(=O)[O-])C(C)CC,,25,?C
[NH3+]CCCCCCCCCCCC(O)=O,omega-amino-n-dodecanic acid,4.648,Log unit,OC(=O)CCCCCCCCCCC[NH3+],,25,?C
[NH3+]C1(CCCCC1)C(O)=O,"1,1-amino-cyclohexane-carboxylic acid",2.66,Log unit,OC(=O)C1(CCCCC1)[NH3+],,25,?C
NC1(CCCCC1)C([O-])=O,"1,1-amino-cyclohexane-carboxylic acid",10,Log unit,NC1(CCCCC1)C(=O)[O-],,25,?C
[NH3+]C1CCCCC1C(O)=O,"1,2-amino-cyclohexane-carboxylic acid",3.59,Log unit,OC(=O)C1C([NH3+])CCCC1,,25,?C
NC1CCCCC1C([O-])=O,"1,2-amino-cyclohexane-carboxylic acid",10.1,Log unit,NC1CCCCC1C(=O)[O-],,25,?C
NC1CCCC(C1)C(O)=O,"1,3-aminocyclohexanecarboxylic acid",4.2,Log unit,OC(=O)C1CC(N)CCC1,,25,?C
[NH3+]C1CCC(CC1)C(O)=O,"1,4-amino-cyclohexane-carboxylic acid",4.3,Log unit,OC(=O)C1CCC([NH3+])CC1,,25,?C
NC1CCC(CC1)C([O-])=O,"1,4-amino-cyclohexane-carboxylic acid",10.5,Log unit,NC1CCC(C(=O)[O-])CC1,,25,?C
[NH3+]CCCC([NH3+])C(O)=O,ornithine,1.94,Log unit,OC(=O)C([NH3+])CCC[NH3+],,25,?C
NC(CCC[NH3+])C([O-])=O,ornithine,8.65,Log unit,NC(C(=O)[O-])CCC[NH3+],,25,?C
NC(=[NH2+])NCCCC([NH3+])C(O)=O,ARGININE,2.06,Log unit,OC(=O)C([NH3+])CCCNC(=[NH2+])N,,25,?C
[NH3+]C(CC1=CNC=[NH+]1)C(O)=O,histidine,1.8,Log unit,OC(=O)C(Cc1[n+]c[nH]c1)[NH3+],,25,?C
NC(=O)NCCCC([NH3+])C(O)=O,L-citrulline,2.43,Log unit,OC(=O)C(CCCNC(=O)N)[NH3+],,25,?C
[NH3+]CCCCC([NH3+])C(O)=O,lysine,2.17,Log unit,OC(=O)C([NH3+])CCCC[NH3+],,25,?C
[NH3+]C(CC(O)=O)C(O)=O,ASPARTIC ACID,2.01,Log unit,OC(=O)CC([NH3+])C(=O)O,,25,?C
[NH3+]C(CC(O)=O)C([O-])=O,ASPARTIC ACID,3.9,Log unit,OC(=O)CC([NH3+])C(=O)[O-],,25,?C
NC(CC([O-])=O)C([O-])=O,ASPARTIC ACID,10,Log unit,NC(CC(=O)[O-])C(=O)[O-],,25,?C
[NH3+]C(CC(O)=O)C([O-])=O,ASPARTIC ACID,3.8,Log unit,OC(=O)CC([NH3+])C(=O)[O-],,25,?C
NC(CC([O-])=O)C([O-])=O,ASPARTIC ACID,9.5,Log unit,NC(CC(=O)[O-])C(=O)[O-],,25,?C
[NH3+]C(CCC(O)=O)C(O)=O,Glutamic acid,2.155,Log unit,OC(=O)CCC([NH3+])C(=O)O,,25,?C
CCOC(=O)C([NH3+])CCC(O)=O,glutamic acid-alpha-ethyl half ester,3.846,Log unit,OC(=O)CCC([NH3+])C(=O)OCC,,25,?C
CCOC(=O)CCC([NH3+])C(O)=O,glutamic acid-gamma-ethyl half ester,2.148,Log unit,OC(=O)C([NH3+])CCC(=O)OCC,,25,?C
OC(=O)C[NH2+]CC([O-])=O,IMINODIACETIC ACID,2.32,Log unit,OC(=O)C[NH2+]CC(=O)[O-],,25,?C
[O-]C(=O)CNCC([O-])=O,IMINODIACETIC ACID,9.42,Log unit,N(CC(=O)[O-])CC(=O)[O-],,25,?C
C[NH+](CC(O)=O)CC(O)=O,methylaminediacetic acid,2.15,Log unit,[NH+](CC(=O)O)(C)CC(=O)O,,25,?C
CN(CC([O-])=O)CC([O-])=O,methylaminediacetic acid,9.57,Log unit,N(CC(=O)[O-])(C)CC(=O)[O-],,25,?C
OC(=O)C[NH+](CC(O)=O)C1=CC=CC=C1,anilinediacetic acid,2.7,Log unit,OC(=O)C[N+](c1ccccc1)CC(=O)O,,25,?C
[O-]C(=O)CN(CC([O-])=O)C1=CC=CC=C1,anilinediacetic acid,5,Log unit,N(c1ccccc1)(CC(=O)[O-])CC(=O)[O-],,25,?C
OC(=O)C[NH+](CC(O)=O)CC(O)=O,nitriloacetic acid,1.3,Log unit,OC(=O)C[NH+](CC(=O)O)CC(=O)O,,25,?C
OC(=O)C[NH+](CC(O)=O)CC([O-])=O,nitriloacetic acid,1.7,Log unit,OC(=O)C[NH+](CC(=O)[O-])CC(=O)O,,25,?C
OC(=O)C[NH+](CC([O-])=O)CC([O-])=O,nitriloacetic acid,2.4,Log unit,OC(=O)C[NH+](CC(=O)[O-])CC(=O)[O-],,25,?C
OC(=O)CC[NH2+]CC([O-])=O,iminopropionic acid-acetic acid,3.61,Log unit,OC(=O)CC[NH2+]CC(=O)[O-],,25,?C
[O-]C(=O)CCNCC([O-])=O,iminopropionic acid-acetic acid,9.46,Log unit,N(CC(=O)[O-])CCC(=O)[O-],,25,?C
OC(=O)CC[NH2+]CCC([O-])=O,IMINODIPROPIONIC ACID,4.11,Log unit,OC(=O)CC[NH2+]CCC(=O)[O-],,25,?C
[O-]C(=O)CCNCCC([O-])=O,IMINODIPROPIONIC ACID,9.61,Log unit,N(CCC(=O)[O-])CCC(=O)[O-],,25,?C
[O-]C(=O)CNCC[NH2+]CC([O-])=O,"ethylenediamine-N,N-diacetic acid",6.8,Log unit,N(CC(=O)[O-])CC[NH2+]CC(=O)[O-],,25,?C
OC(=O)CC[NH+](CC[NH+](CCC(O)=O)CC([O-])=O)CC([O-])=O,"ethylenediamine-N,N'-dipropionic acid-N,N'-diacetic acid",3.3,Log unit,OC(=O)CC[NH+](CC(=O)[O-])CC[NH+](CC(=O)[O-])CCC(=O)O,,25,?C
OC(=O)CC[NH+](CC[NH+](CCC([O-])=O)CC([O-])=O)CC([O-])=O,"ethylenediamine-N,N'-dipropionic acid-N,N'-diacetic acid",3.5,Log unit,OC(=O)CC[NH+](CC[NH+](CC(=O)[O-])CCC(=O)[O-])CC(=O)[O-],,25,?C
CC(=O)C(O)=O,Pyruvic acid,2.6,Log unit,OC(=O)C(=O)C,,25,?C
CC(=O)CC(O)=O,ACETOACETIC ACID,3.6,Log unit,OC(=O)CC(=O)C,,25,?C
CC(=O)CCC(O)=O,LEVULINIC ACID,4.6,Log unit,OC(=O)CCC(=O)C,,25,?C
CC(=O)CC(=O)C(O)=O,"alpha,gamma-diketo-n-valeric acid",2.9,Log unit,OC(=O)C(=O)CC(=O)C,,25,?C
CC(=O)CCCC(O)=O,gamma-acetyl-n-butyric acid,4.8,Log unit,OC(=O)CCCC(=O)C,,25,?C
OC(=O)CC(=O)C(O)=O,oxaloacetic acid,2.55,Log unit,OC(=O)CC(=O)C(=O)O,,25,?C
OC(=O)CC(=O)C([O-])=O,oxaloacetic acid,4.2,Log unit,OC(=O)CC(=O)C(=O)[O-],,25,?C
[NH3+]C(CS([O-])(=O)=O)C(O)=O,Cysteic Acid,1.89,Log unit,OC(=O)C(CS(=O)(=O)[O-])[NH3+],,25,?C
NC(CS([O-])(=O)=O)C([O-])=O,Cysteic Acid,8.7,Log unit,NC(CS(=O)(=O)[O-])C(=O)[O-],,25,?C
OC(=O)COC1=CC=CC=C1F,ortho-fluorophenoxy-acetic acid,3.08,Log unit,OC(=O)COc1c(F)cccc1,,25,?C
OC(=O)COC1=CC(F)=CC=C1,p-fluoro phenoxy-acetic acid,3.08,Log unit,OC(=O)COc1cc(F)ccc1,,25,?C
OC(=O)COC1=CC=C(F)C=C1,p-fluorophenoxy-acetic acid,3.13,Log unit,OC(=O)COc1ccc(F)cc1,,25,?C
OC(=O)COC1=CC=CC=C1Cl,o-chlorophenoxy-acetic acid,3.05,Log unit,OC(=O)COc1c(Cl)cccc1,,25,?C
OC(=O)COC1=CC(Cl)=CC=C1,meta-chlorophenoxy-acetic acid,3.055,Log unit,OC(=O)COc1cc(Cl)ccc1,,25,?C
OC(=O)COC1=CC=C(Cl)C=C1,para-chlorophenoxy-acetic acid,3.04,Log unit,OC(=O)COc1ccc(Cl)cc1,,25,?C
CC1=CC(Cl)=CC=C1OCC(O)=O,2-METHYL-4-CHLOROPHENOXYACETIC ACID,3.195,Log unit,OC(=O)COc1ccc(Cl)cc1C,,25,?C
CC1=CC(Cl)=CC(Cl)=C1OCC(O)=O,"2-methyl-4,6-dichlorophenoxy-acetic acid",3.13,Log unit,OC(=O)COc1c(cc(Cl)cc1C)Cl,,25,?C
OC(=O)COC1=C(Cl)C=C(Cl)C=C1,"2,4-dichlorophenoxy-acetic acid",2.64,Log unit,OC(=O)COc1c(cc(Cl)cc1)Cl,,25,?C
OC(=O)COC1=CC=CC=C1Br,o-bromophenoxy-acetic acid,3.13,Log unit,OC(=O)COc1c(Br)cccc1,,25,?C
OC(=O)COC1=CC(Br)=CC=C1,m-Bromophenoxyacetic acid,3.065,Log unit,OC(=O)COc1cc(Br)ccc1,,25,?C
OC(=O)COC1=CC=C(Br)C=C1,p-Bromophenoxyacetic acid,3.13,Log unit,OC(=O)COc1ccc(Br)cc1,,25,?C
OC(=O)COC1=CC=CC=C1I,ortho-iodophenoxy-acetic acid,3.17,Log unit,OC(=O)COc1c(I)cccc1,,25,?C
OC(=O)COC1=CC(I)=CC=C1,m-iodophenoxy-acetic acid,3.13,Log unit,OC(=O)COc1cc(I)ccc1,,25,?C
OC(=O)COC1=CC=C(I)C=C1,p-iodophenoxy-acetic acid,3.16,Log unit,OC(=O)COc1ccc(I)cc1,,25,?C
OC(=O)COC1=CC=CC=C1C#N,o-cyanophenoxy-acetic acid,2.97,Log unit,OC(=O)COc1ccccc1C#N,,25,?C
OC(=O)COC1=CC=CC(=C1)C#N,m-cyanophenoxy-acetic acid,3.03,Log unit,OC(=O)COc1cccc(c1)C#N,,25,?C
OC(=O)COC1=CC=C(C=C1)C#N,p-cyanophenoxy-acetic acid,2.9,Log unit,OC(=O)COc1ccc(cc1)C#N,,25,?C
OC(=O)COC1=CC=CC=C1N(=O)=O,ortho-nitrophenoxy-acetic acid,2.9,Log unit,OC(=O)COc1ccccc1N(=O)=O,,25,?C
OC(=O)COC1=CC=CC(=C1)N(=O)=O,m-nitrophenoxy-acetic acid,2.93,Log unit,OC(=O)COc1cccc(c1)N(=O)=O,,25,?C
OC(=O)C(F)(F)F,Trifluoroacetic acid,0.4,Log unit,OC(=O)C(F)(F)F,,25,?C
OC(=O)C(Cl)(Cl)Cl,TRICHLOROACETIC ACID,0.52,Log unit,OC(=O)C(Cl)(Cl)Cl,,25,?C
CC(Cl)C(O)=O,alpha-Chloropropionic acid,2.88,Log unit,OC(=O)C(Cl)C,,25,?C
OC(=O)CCCl,beta-Chloropropionic acid,4.045,Log unit,OC(=O)CCCl,,25,?C
CC(Br)C(O)=O,alpha-bromo-propionic acid,2.97,Log unit,OC(=O)C(Br)C,,25,?C
OC(=O)CCBr,beta-bromo-propionic acid,3.92,Log unit,OC(=O)CCBr,,25,?C
CC(I)C(O)=O,2-iodo-propanoic acid,3.11,Log unit,OC(=O)C(I)C,,25,?C
OC(=O)CCI,beta-iodo-propionic acid,4.09,Log unit,OC(=O)CCI,,25,?C
CC(C#N)C(O)=O,alpha-cyano-propionic acid,2.37,Log unit,OC(=O)C(C#N)C,,25,?C
OC(=O)CCC#N,beta-cyano-propionic acid,3.99,Log unit,OC(=O)CCC#N,,25,?C
OC(=O)CC(F)(F)F,"beta,beta,beta-trifluoropropionic acid",3.02,Log unit,OC(=O)CC(F)(F)F,,25,?C
CCC(Cl)C(O)=O,alpha-chloro-iso-butyric acid,2.97,Log unit,OC(=O)C(Cl)CC,,25,?C
OC(=O)CCCC#N,gamma-cyano-n-butyric acid,4.44,Log unit,OC(=O)CCCC#N,,25,?C
CCC(C#N)C(O)=O,alpha-cyano-iso-butyric acid,2.42,Log unit,OC(=O)C(C#N)CC,,25,?C
OC(=O)CCC(F)(F)F,"alpha,alpha,alpha-trifluoro-n-butyric acid",4.155,Log unit,OC(=O)CCC(F)(F)F,,25,?C
OC(=O)C(F)(F)C(F)(F)C(F)(F)F,heptafluoro-n-butyric acid,0.2,Log unit,OC(=O)C(C(C(F)(F)F)(F)F)(F)F,,25,?C
CCC(CBr)C(O)=O,alpha-ethyl-beta-bromo-propionic acid,3.92,Log unit,OC(=O)C(CBr)CC,,25,?C
OC(=O)CCCC(F)(F)F,"delta,delta,delta-trifluoro-n-valeric acid",4.49,Log unit,OC(=O)CCCC(F)(F)F,,25,?C
OC(=O)CCC(F)(F)C(F)(F)C(F)(F)F,"ggamma,gamma,delta,delta,epsilon,epsilon,epsilon-heptafluoro-n",4.18,Log unit,OC(=O)CCC(C(C(F)(F)F)(F)F)(F)F,,25,?C
OC(=O)C(F)=C,alpha-fluoroacrylic acid,2.55,Log unit,OC(=O)C(=C)F,,25,?C
OC(=O)C=C(F)F,"beta,beta-difluoroacrylic acid",3.17,Log unit,OC(=O)C=C(F)F,,25,?C
OC(=O)C(F)=C(F)F,TRIFLUOROACRYLIC ACID,1.79,Log unit,OC(=O)C(=C(F)F)F,,25,?C
OC(=O)C=CCl,trans-beta-Chloroacrylic acid,3.65,Log unit,OC(=O)C=CCl,,25,?C
OC(=O)C=CCl,cis-beta-Chloroacrylic acid,3.32,Log unit,OC(=O)C=CCl,,25,?C
OC(=O)C(Cl)=C(Cl)Cl,Trichloroacrylic acid,1.17,Log unit,OC(=O)C(=C(Cl)Cl)Cl,,25,?C
CC=C(Cl)C(O)=O,alpha-chloro-crotonic acid,3.22,Log unit,OC(=O)C(=CC)Cl,,25,?C
OC(=O)C(Cl)C=C,alpha-chloro-vinylacetic acid,2.54,Log unit,OC(=O)C(Cl)C=C,,25,?C
OC(=O)C=CC(F)(F)F,"gamma,gamma,gamma-trifluoro-crotonic acid",3.415,Log unit,OC(=O)C=CC(F)(F)F,,25,?C
OC(=O)C=CC(F)(F)C(F)(F)C(F)F,heptafluoro-n-propylacrylic acid,3.23,Log unit,OC(=O)C=CC(C(C(F)F)(F)F)(F)F,,25,?C
OC(=O)C(C#N)C1CCCCC1,cyclohexyl-cyanoacetic acid,2.37,Log unit,OC(=O)C(C1CCCCC1)C#N,,25,?C
OC(=O)C1CCCCC1C#N,trans-1-cyano-cyclohexane-2-carboxylic acid,3.86,Log unit,OC(=O)C1C(C#N)CCCC1,,25,?C
OC(=O)CC(Br)C(O)=O,Monobromosuccinic acid,2.7,Log unit,OC(=O)C(Br)CC(=O)O,,25,?C
OC(=O)CC(Br)C([O-])=O,Monobromosuccinic acid,4.6,Log unit,OC(=O)CC(Br)C(=O)[O-],,25,?C
OC(=O)C(Cl)C(Cl)C(O)=O,"rac.-alpha,alpha'-dichlorosuccinic acid",1.73,Log unit,OC(=O)C(Cl)C(Cl)C(=O)O,,25,?C
OC(=O)C(Cl)C(Cl)C([O-])=O,"rac.-alpha,alpha'-dichlorosuccinic acid",2.8,Log unit,OC(=O)C(C(Cl)C(=O)[O-])Cl,,25,?C
OC(=O)C(Cl)C(Br)C(O)=O,threo-alpha-chloro-alpha'-bromo-succinic acid,1.76,Log unit,OC(=O)C(Br)C(Cl)C(=O)O,,25,?C
OC(=O)C(Cl)C(Br)C([O-])=O,threo-alpha-chloro-alpha'-bromo-succinic acid,2.95,Log unit,OC(=O)C(C(Br)C(=O)[O-])Cl,,25,?C
OC(=O)C(Br)C(Br)C(O)=O,"rac.-alpha,alpha'-dibromo-succinic acid",1.79,Log unit,OC(=O)C(Br)C(Br)C(=O)O,,25,?C
OC(=O)C(Br)C(Br)C([O-])=O,"rac.-alpha,alpha'-dibromo-succinic acid",2.67,Log unit,OC(=O)C(Br)C(Br)C(=O)[O-],,25,?C
[OH:5][CH2:4][C:2]([OH:3])=[O:1],Glycolic Acid,3.835,Log unit,OC(=O)CO,,25,?C
CCOCC(O)=O,ethoxy-acetic acid,3.65,Log unit,OC(=O)COCC,,25,?C
OC(=O)COC1CCCC1,cyclopentyl-oxy-acetic acid,3.7,Log unit,OC(=O)COC1CCCC1,,25,?C
OC(=O)COC1CCCCC1,cyclohexyl-oxy-acetic acid,3.54,Log unit,OC(=O)COC1CCCCC1,,25,?C
OC(=O)COCC1CCCCC1,cyclohexylmethoxy-acetic acid,3.9,Log unit,OC(=O)COCC1CCCCC1,,25,?C
CC1CCCCC1OCC(O)=O,2-methylcyclohexyl-oxy-acetic acid,3.8,Log unit,OC(=O)COC1CCCCC1C,,25,?C
CC1CCCC(C1)OCC(O)=O,trans-3-methylcyclohexyl-oxy-acetic acid,3.81,Log unit,OC(=O)COC1CCCC(C)C1,,25,?C
OC(=O)COC1CCC2CCCCC2C1,dekahydronaphthyl-oxy-acetic acid,3.64,Log unit,OC(=O)COC1CC2CCCCC2CC1,,25,?C
OC(=O)COC1=CC=CC=C1,phenoxy-acetic acid,3.145,Log unit,OC(=O)COc1ccccc1,,25,?C
CC1=CC=CC=C1OCC(O)=O,ortho-methylphenoxy-acetic acid,3.23,Log unit,OC(=O)COc1ccccc1C,,25,?C
CC1=CC(OCC(O)=O)=CC=C1,meta-methylphenoxy-acetic acid,3.2,Log unit,OC(=O)COc1cccc(c1)C,,25,?C
CC1=CC=C(OCC(O)=O)C=C1,para-methylphenxoy-acetic acid,3.21,Log unit,OC(=O)COc1ccc(cc1)C,,25,?C
CC1=CC=CC(C)=C1OCC(O)=O,"2,6-dimethylphenoxy-acetic acid",3.35,Log unit,OC(=O)COc1c(cccc1C)C,,25,?C
COC1=CC=CC=C1OCC(O)=O,ortho-methoxyphenoxy-acetic acid,3.23,Log unit,OC(=O)COc1ccccc1OC,,25,?C
COC1=CC(OCC(O)=O)=CC=C1,meta-methoxyphenoxy-acetic acid,3.14,Log unit,OC(=O)COc1cccc(c1)OC,,25,?C
COC1=CC=C(OCC(O)=O)C=C1,para-methoxyphenoxy-acetic acid,3.21,Log unit,OC(=O)COc1ccc(cc1)OC,,25,?C
CC(O)C(O)=O,Lactic acid,3.86,Log unit,OC(=O)C(O)C,,25,?C
CC(OC1CCCCC1)C(O)=O,alpha-(cyclohexy-oxy)-propionic acid,3.64,Log unit,OC(=O)C(OC1CCCCC1)C,,25,?C
CC(OC1CCCCC1C)C(O)=O,alpha-(2-methylcyclohexyl-oxy)-propionic acid,3.65,Log unit,OC(=O)C(OC1CCCCC1C)C,,25,?C
CC(C)(O)C(O)=O,dimethyl-glycolic acid,3.78,Log unit,OC(=O)C(O)(C)C,,25,?C
CCC(C)(O)C(O)=O,methyl-ethyl-glycolic acid,3.86,Log unit,OC(=O)C(O)(C)CC,,25,?C
CC(O)C(C)C(O)=O,alpha-methyl-beta-hydroxy-n-butyric acid,4.65,Log unit,OC(=O)C(C)C(O)C,,25,?C
CCC(O)(CC)C(O)=O,diethyl-glycolic acid,3.8,Log unit,OC(=O)C(O)(CC)CC,,25,?C
CC(O)CCC(O)=O,gamma-hydroxy-valeric acid,4.96,Log unit,OC(=O)CCC(O)C,,25,?C
CC(C)(O)CCC(O)=O,gamma-hydroxy-iso-capronic acid,4.87,Log unit,OC(=O)CCC(O)(C)C,,25,?C
CC(C)C(O)CCC(C)CC(O)=O,epsilon-hydroxy-beta-methyl-epsilon-iso-propyl-n-capronic acid,5.07,Log unit,OC(=O)CC(C)CCC(O)C(C)C,,25,?C
OC1CCCCC1C(O)=O,trans-2-hydroxy-cyclohexane-carboxylic acid,4.68,Log unit,OC(=O)C1C(O)CCCC1,,25,?C
OC1CCCC(CC1)C(O)=O,trans-3-hydroxy-cyclohexane-carboxylic acid,4.82,Log unit,OC(=O)C1CCC(O)CCC1,,25,?C
OC1CCC(CC1)C(O)=O,trans-4-hydroxy-cyclohexane-carboxylic acid,4.68,Log unit,OC(=O)C1CCC(O)CC1,,25,?C
OC(CC(O)=O)C(O)=O,malic acid,3.5,Log unit,OC(=O)CC(O)C(=O)O,,25,?C
OC(CC(O)=O)C([O-])=O,malic acid,4.5,Log unit,OC(=O)CC(O)C(=O)[O-],,25,?C
OC(C(O)C(O)=O)C(O)=O,d-Tartaric acid,3.04,Log unit,OC(=O)C(O)C(O)C(=O)O,,25,?C
OC(=O)CC(CC(O)=O)OC(O)=O,citric acid,2.9,Log unit,OC(=O)OC(CC(=O)O)CC(=O)O,,25,?C
OC(=O)CC(CC(O)=O)OC([O-])=O,citric acid,4.6,Log unit,OC(=O)CC(OC(=O)[O-])CC(=O)O,,25,?C
OC(=O)CC(CC([O-])=O)OC([O-])=O,citric acid,5.1,Log unit,OC(=O)CC(OC(=O)[O-])CC(=O)[O-],,25,?C
[NH3+]CC(O)=O,"glycine, amino-acetic acid",2.328,Log unit,OC(=O)C[NH3+],,25,?C
C[NH2+]CC(O)=O,N-methyl-glycine,2.35,Log unit,OC(=O)C[NH2+]C,,25,?C
CC[NH2+]CC(O)=O,N-ethyl-glycine,2.34,Log unit,OC(=O)C[NH2+]CC,,25,?C
NCC([O-])=O,"glycine, amino-acetic acid",9.6,Log unit,NCC(=O)[O-],,25,?C
CNCC([O-])=O,N-methyl-glycine,9.9,Log unit,N(CC(=O)[O-])C,,25,?C
CCC[NH2+]CC(O)=O,N-n-propyl-glycine,2.35,Log unit,OC(=O)C[NH2+]CCC,,25,?C
CCCNCC([O-])=O,N-n-propyl-glycine,10.19,Log unit,N(CC(=O)[O-])CCC,,25,?C
CCCC[NH2+]CC(O)=O,N-n-butyl-glycine,2.35,Log unit,OC(=O)C[NH2+]CCCC,,25,?C
CCCCNCC([O-])=O,N-n-butyl-glycine,10.25,Log unit,N(CC(=O)[O-])CCCC,,25,?C
CC(C)C[NH2+]CC(O)=O,N-iso-butyl-glycine,2.35,Log unit,OC(=O)C[NH2+]CC(C)C,,25,?C
CC(C)CNCC([O-])=O,N-iso-butyl-glycine,10.12,Log unit,N(CC(=O)[O-])CC(C)C,,25,?C
OC(=O)CNC=O,N-formyl-glycine,3.43,Log unit,OC(=O)CNC=O,,25,?C
CC(C)C(=O)NCC(O)=O,N-propionyl-glycine,3.718,Log unit,OC(=O)CNC(=O)C(C)C,,25,?C
NC(=O)NCC(O)=O,N-carbamoyl-glycine,3.87445,Log unit,OC(=O)CNC(=O)N,,25,?C
CCOC(=O)NCC(O)=O,N-carbethoxy-glycine,3.66,Log unit,OC(=O)CNC(=O)OCC,,25,?C
OCC[NH+](CCO)CC(O)=O,"N,N-di(beta-hydroxyethyl)-glycine",1.99,Log unit,OC(=O)C[NH+](CCO)CCO,,25,?C
OCCN(CCO)CC([O-])=O,"N,N-di(beta-hydroxyethyl)-glycine",8.08,Log unit,N(CC(=O)[O-])(CCO)CCO,,25,?C
CC(=O)NCC(O)=O,N-acetyl-glycine,3.6712,Log unit,OC(=O)CNC(=O)C,,25,?C
OC(=O)CNC(=O)CCl,N-(beta-chloroacetyl)-glycine,3.38,Log unit,OC(=O)CNC(=O)CCl,,25,?C
CC([NH3+])C(O)=O,DL-Alanine,2.3245,Log unit,OC(=O)C([NH3+])C,,25,?C
CC(N)C([O-])=O,DL-Alanine,9.8,Log unit,NC(C(=O)[O-])C,,25,?C
C[NH2+]C(C)C(O)=O,N-methyl-alanine,2.22,Log unit,OC(=O)C([NH2+]C)C,,25,?C
CNC(C)C([O-])=O,N-methyl-alanine,10.2,Log unit,N(C(C(=O)[O-])C)C,,25,?C
CC[NH2+]C(C)C(O)=O,N-ethyl-alanine,2.22,Log unit,OC(=O)C([NH2+]CC)C,,25,?C
CCNC(C)C([O-])=O,N-ethyl-alanine,10.22,Log unit,N(C(C(=O)[O-])C)CC,,25,?C
CCC[NH2+]C(C)C(O)=O,N-n-propyl-alanine,2.21,Log unit,OC(=O)C([NH2+]CCC)C,,25,?C
OC(=O)CCC=C,n-butene-3-carboxylic acid -1,4.675,Log unit,OC(=O)CCC=C,,25,?C
CC=C(C)C(O)=O,Angelic acid,4.29,Log unit,OC(=O)C(=CC)C,,25,?C
CC=C(C)C(O)=O,TIGLIC ACID,4.96,Log unit,OC(=O)C(=CC)C,,25,?C
CC(C)=CC(O)=O,3-METHYL-2-BUTENOIC ACID,5.13,Log unit,OC(=O)C=C(C)C,,25,?C
CCCC=CC(O)=O,2-HEXENOIC ACID,4.725,Log unit,OC(=O)C=CCCC,,25,?C
CCC=CCC(O)=O,n-pentene-2-carboxylic acid-1,4.51,Log unit,OC(=O)CC=CCC,,25,?C
CC=CCCC(O)=O,n-pentene-3-carboxylic acid-1,4.72,Log unit,OC(=O)CCC=CC,,25,?C
OC(=O)CCCC=C,n-pentene-4-carboxylic acid-1,4.72,Log unit,OC(=O)CCCC=C,,25,?C
CCC(C)=CC(O)=O,trans-2-methyl-n-butene-1-carboxylic acid-1,5.13,Log unit,OC(=O)C=C(C)CC,,25,?C
CCC(C)=CC(O)=O,cis-2-methyl-n-butene-1-carboxylic acid,5.15,Log unit,OC(=O)C=C(C)CC,,25,?C
CC(C)C=CC(O)=O,3-methyl-n-butene-1-carboxylic-acid-1,4.7,Log unit,OC(=O)C=CC(C)C,,25,?C
CC(C)=CCC(O)=O,3-methyl-n-butene-2-carboxylic acid-1,4.6,Log unit,OC(=O)CC=C(C)C,,25,?C
CC(C)=CCCC(O)=O,4-methyl-n-pentene-3-carboxylic acid-1,4.8,Log unit,OC(=O)CCC=C(C)C,,25,?C
OC(=O)C=CC(O)=O,maleic acid,3.31,Log unit,OC(=O)C=CC(=O)O,,25,?C
OC(=O)C=CC([O-])=O,maleic acid,4.08,Log unit,OC(=O)C=CC(=O)[O-],,25,?C
OC(=O)C=CC(O)=O,FUMARIC ACID,3.3,Log unit,OC(=O)C=CC(=O)O,,25,?C
CC(O)CC(O)=O,3-hydroxy-butanoic acid,4.4,Log unit,OC(=O)CC(O)C,,25,?C
CC(CC(O)=O)C=O,3-formyl-butanoic acid,5.02,Log unit,OC(=O)CC(C=O)C,,25,?C
CC(CCC(O)=O)(N(=O)=O)N(=O)=O,"4,4-dinitro-pentanoic acid",3.98,Log unit,OC(=O)CCC(N(=O)=O)(N(=O)=O)C,,25,?C
OC(=O)CC=CC(O)=O,Glutaconic acid,4.1,Log unit,OC(=O)C=CCC(=O)O,,25,?C
OC(=O)C1CC1,cyclopropane-carboxlic acid,4.83,Log unit,OC(=O)C1CC1,,25,?C
OC(=O)C1CCC1,cyclobutane-carboxylic acid,4.79,Log unit,OC(=O)C1CCC1,,25,?C
OC(=O)C1CCCC1,cyclopentane-carboxylic acid,4.99,Log unit,OC(=O)C1CCCC1,,25,?C
OC(=O)C1CCCCC1,cyclohexane-carboxylic acid,4.905,Log unit,OC(=O)C1CCCCC1,,25,?C
CC1(CCCCC1)C(O)=O,1-methyl-cyclohexane-carboxylic acid,5.13,Log unit,OC(=O)C1(CCCCC1)C,,25,?C
CC1CCCCC1C(O)=O,trans-2-methyl-cyclohexane-carboxylic acid,4.74,Log unit,OC(=O)C1CCCCC1C,,25,?C
CC1CCCC(C1)C(O)=O,trans-3-methyl-cyclohexane-carboxylic acid,4.795,Log unit,OC(=O)C1CCCC(C1)C,,25,?C
CC1CCC(CC1)C(O)=O,trans-4-methyl-cyclohexane-carboxylic acid,4.89,Log unit,OC(=O)C1CCC(C)CC1,,25,?C
OC(=O)CC1CCCCC1,cyclohexyl-acetic acid,4.8,Log unit,OC(=O)CC1CCCCC1,,25,?C
OC(=O)CCC1CCCCC1,cyclohexyl-propionic acid,4.91,Log unit,OC(=O)CCC1CCCCC1,,25,?C
OC(=O)CCCC1CCCCC1,cyclohexyl-n-butyric acid,4.95,Log unit,OC(=O)CCCC1CCCCC1,,25,?C
OC(=O)C1(CC1)C(O)=O,"cyclopropane-1,1-dicarboxylic acid",2.1,Log unit,OC(=O)C1(CC1)C(=O)O,,25,?C
OC(=O)C1CC1C(O)=O,"trans-cyclopropane-1,2-dicarboxylic acid",3.95,Log unit,OC(=O)C1CC1C(=O)O,,25,?C
OC(=O)C1(CCC1)C(O)=O,"Cyclobutane-1,1-dicarboxylic acid",3.43,Log unit,OC(=O)C1(CCC1)C(=O)O,,25,?C
OC(=O)C1(CCC1)C([O-])=O,"Cyclobutane-1,1-dicarboxylic acid",5.6,Log unit,OC(=O)C1(CCC1)C(=O)[O-],,25,?C
OC(=O)C1CCC1C(O)=O,"trans-Cyclobutane-1,2-dicarboxylic acid",4.24,Log unit,OC(=O)C1CCC1C(=O)O,,25,?C