Smiles,Name,pKa,pKa Unit,Ionizable center smiles,IC group,Temperature,Temperature Unit
COC(=O)[C@@H]1[C@@H]2CC[C@H](C[C@@H]1OC(=O)C1=CC=CC=C1)N2C,Benzoylecgonine methyl ester,8.7,Log unit,N1(C2C(C(CC1CC2)OC(=O)c1ccccc1)C(=O)OC)C,,,-
CCC1([C@H](C)CC(C)C)C(=O)NC(=O)NC1=O,Barbituric acid,8.14,Log unit,N1C(=O)C(C(=O)NC1=O)(C(CC(C)C)C)CC,,,-
COC1=CC2=C(C=C1OC)[C@@]13CCN4CC5=CCO[C@@H]6CC(=O)N2[C@H]1[C@@H]6[C@@H]5C[C@H]34,brucine,8.28,Log unit,N12C3C4(C5N(C(=O)CC6C5C(C3)C(=CCO6)C1)c1c4cc(c(c1)OC)OC)CC2,,,-
CN1CCN(CC1)[C@H](C1=CC=CC=C1)C1=CC=C(Cl)C=C1,Chlorcyclizine,2.12,Log unit,N1(C(c2ccc(cc2)Cl)c2ccccc2)CCN(CC1)C,,,-
CN(C)[C@H]1[C@@H]2[C@@H](O)[C@@H]3C(=C(O)[C@]2(O)C(=O)C(C(N)=O)=C1O)C(=O)C1=C(O)C=CC=C1[C@@]3(C)O,oxytetracycline,3.27,Log unit,OC1=C(C(=O)C2(C(=C3C(=O)c4c(cccc4C(C3C(C2C1N(C)C)O)(O)C)O)O)O)C(=O)N,,,-
CCC[C@@H]1C[C@H](N(C)C1)C(=O)N[C@@H]([C@H](C)Cl)[C@H]1O[C@H](SC)[C@H](O)[C@@H](O)[C@H]1O,Clindamycin,7.72,Log unit,N1(C(C(=O)NC(C2OC(C(C(C2O)O)O)SC)C(Cl)C)CC(C1)CCC)C,,,-
CN1CCC[C@H](C1)C(O)=O,Dihydroarecaidine,9.7,Log unit,N1(CC(C(=O)O)CCC1)C,,,-
COC(=O)[C@@H]1CCCN(C)C1,Dihydroarecaidine methyl ester,8.39,Log unit,N1(CC(C(=O)OC)CCC1)C,,,-
COC1=C2O[C@H]3[C@@H](O)C=C[C@H]4[C@H]5CC(C=C1)=C2[C@@]34CCN5CCC#N,"Norcodeine, N-(2-cyano)ethyl",5.68,Log unit,N1(C2C3C=CC(C4Oc5c(OC)ccc(C2)c5C34CC1)O)CCC#N,,,-
CCCCCCCC\C=C\CCCCCCCC(=O)OC[C@@H](CO[P@@](O)(=O)OCCN)OC(=O)CCCCCCC\C=C\CCCCCCCC,"1,2-Dioleoylphosphatidylethano",7.55,Log unit,NCCOP(=O)(OCC(COC(=O)CCCCCCCC=CCCCCCCCC)OC(=O)CCCCCCCC=CCCCCCCCC)O,,,-
CCOC(=O)C1=C(O)C2=C(OC(\C=N\N3C[C@@H](CN4CCOCC4)OC3=O)=C2)N=C1,ebifuramin,5.24,Log unit,N1(CC2OC(=O)N(N=Cc3oc4c(c(c(C(=O)OCC)cn4)O)c3)C2)CCOCC1,,,-
CN1CC[C@]23[C@H]4OC5=C(O[C@@H]6O[C@@H]([C@@H](O)[C@@H](O)[C@H]6O)C(O)=O)C=CC(C[C@@H]1[C@@H]2C=C[C@@H]4O)=C35,Morphine-3-glucuronide,2.87,Log unit,OC(=O)C1OC(C(C(C1O)O)O)Oc1c2c3c(cc1)CC1C4C=CC(C(O2)C34CCN1C)O,,,-
CN1CC[C@]23[C@H]4OC5=C(O)C=CC(C[C@@H]1[C@@H]2C=C[C@@H]4O[C@H]1O[C@@H]([C@H](O)[C@H](O)[C@H]1O)C(O)=O)=C35,Morphine-6-glucuronide,2.89,Log unit,OC(=O)C1OC(C(C(C1O)O)O)OC1C2C34c5c(c(O)ccc5CC(C3C=C1)N(CC4)C)O2,,,-
NC1=CC=C(C=C1)C(O)=O,4-Aminobenzoic acid,2.501,Log unit,Nc1ccc(C(=O)O)cc1,,,-
CC(C)NC[C@H](O)COC1=C2C=CC=CC2=CC=C1,Propranolol,9.5,Log unit,N(CC(COc1cccc2c1cccc2)O)C(C)C,,,-
[H]OC([H])([H])[C@@]([H])(O[H])[C@@]([H])(O[H])[C@@]([H])(O[H])C([H])([H])N1C2=NC(=O)N([H])C(=O)C2=NC2=C1C([H])=C(C(=C2[H])C([H])([H])[H])C([H])([H])[H],Riboflavine,9.69,Log unit,[nH]1c(=O)nc2n(CC(C(C(CO)O)O)O)c3c(nc2c1=O)cc(c(C)c3)C,,,-
CC1(C)S[C@@H]2[C@H](NC(=O)[C@H](N)C3=CC=CC=C3)C(=O)N2[C@H]1C(O)=O,Ampicillin,2.65,Log unit,OC(=O)C1N2C(SC1(C)C)C(C2=O)NC(=O)C(c1ccccc1)N,,,-
[H][C@@]12CC[C@@](O)(C#C)[C@@]1(C)CC[C@]1([H])C3=C(CC[C@@]21[H])C=C(O)C=C3,ethinyl estradiol,10.4,Log unit,Oc1ccc2C3C(C4C(C(C#C)(CC4)O)(CC3)C)CCc2c1,,,-
[H][C@@]12OC3=C(O)C=CC4=C3[C@@]11CCN(C)[C@]([H])(C4)[C@]1([H])C=C[C@@H]2O,Morphine,9.4,Log unit,Oc1c2c3c(cc1)CC1C4C3(C(O2)C(C=C4)O)CCN1C,,,-
OC[C@H](O)[C@H]1OC(=O)C(O)=C1O,Ascorbic acid,4.13,Log unit,OC1=C(C(=O)OC1C(O)CO)O,,,-
OC(=O)CC1=CC=CC=C1NC1=C(Cl)C=CC=C1Cl,Diclofenac,3.99,Log unit,OC(=O)Cc1c(Nc2c(Cl)cccc2Cl)cccc1,,,-
[H]O[C@@]([H])(C1=C([H])C([H])=C([H])C([H])=C1[H])[C@@]([H])(N([H])[H])C([H])([H])[H],Norpseudoephedrine,9.19,Log unit,NC(C(c1ccccc1)O)C,,,-
[H][C@@]12CCC(=O)[C@@]1(C)CC[C@]1([H])C3=C(CC[C@@]21[H])C=C(O)C=C3,estrone,10.34,Log unit,Oc1cc2c(C3C(C4C(C(=O)CC4)(CC3)C)CC2)cc1,,,-
CC1CCC2=CC(F)=CC3=C2N1C=C(C(O)=O)C3=O,Flumequine,6.38,Log unit,OC(=O)c1cn2c3c(cc(cc3c1=O)F)CCC2C,,,-
ClC1=CC=CC(Cl)=C1N=C1NCCN1,Clonidine,8.12,Log unit,N(=C1NCCN1)c1c(Cl)cccc1Cl,,,-
S=C1NC=NC2=C1NC=N2,6-Mercaptopurine,7.77,Log unit,Sc1c2c(ncn1)nc[nH]2,,,-
CC(C)CC1=CC=C(C=C1)C(C)C(O)=O,Ibuprofen,4.44,Log unit,OC(=O)C(C)c1ccc(cc1)CC(C)C,,,-
COCCC1=CC=C(OC[C@H](O)CNC(C)C)C=C1,metoprolol,9.555,Log unit,N(CC(COc1ccc(cc1)CCOC)O)C(C)C,,,-
NS(=O)(=O)C1=C(Cl)C=CC(=C1)C1(O)NC(=O)C2=CC=CC=C12,Chlorthalidone,9.355,Log unit,NS(=O)(=O)c1cc(C2(NC(=O)c3c2cccc3)O)ccc1Cl,,,-
COC1=C(O)C(C=O)=CC=C1,"Vanillin, ortho",7.912,Log unit,Oc1c(OC)cccc1C=O,,,-
COC1=CC=C(C=O)C=C1O,"Vanillin, iso",8.889,Log unit,Oc1c(OC)ccc(c1)C=O,,,-
OC(=O)C1=CC=CN=C1NC1=CC=CC(=C1)C(F)(F)F,Niflumic acid,4.44,Log unit,n1c(Nc2cc(ccc2)C(F)(F)F)c(ccc1)C(=O)O,,,-
NS(=O)(=O)C1=CC2=C(NCNS2(=O)=O)C=C1Cl,Hydrochlorothiazide,10.13,Log unit,N1CNc2cc(c(S(=O)(=O)N)cc2S1(=O)=O)Cl,,,-
[H]O[C@@]1([H])[C@]([H])(O[C@]([H])(C([H])(N([H])C(=O)[C@@]2([H])N(C([H])([H])[H])C([H])([H])[C@]([H])(C([H])([H])C([H])([H])C([H])([H])[H])C2([H])[H])C([H])(Cl)C([H])([H])[H])[C@]([H])(O[H])[C@]1([H])O[H])SC([H])([H])[H],Clindamycin,7.72,Log unit,N1(C(C(=O)NC(C2OC(SC)C(C(C2O)O)O)C(Cl)C)CC(CCC)C1)C,,,-
[O-][N+](=O)C1=CC=C2NC(=O)CN=C(C3=CC=CC=C3)C2=C1,Nitrazepam,10.525,Log unit,N1c2ccc(cc2C(=NCC1=O)c1ccccc1)[N+](=O)[O-],,,-
CC[C@@H](CO)NC(=O)[C@H]1CN(C)[C@@H]2CC3=CN(C)C4=CC=CC(=C34)C2=C1,Methysergide,6.62,Log unit,N1(C2Cc3cn(c4cccc(C2=CC(C1)C(=O)NC(CC)CO)c34)C)C,,,-
[H]O[C@]([H])(C1=C([H])C([H])=C([H])C([H])=C1[H])[C@@]([H])(N([H])C([H])([H])[H])C([H])([H])[H],Ephedrine,9.61,Log unit,N(C(C(c1ccccc1)O)C)C,,,-
CN[C@H](C)[C@@H](O)C1=CC=CC=C1,Pseudoephedrine,9.73,Log unit,N(C(C(c1ccccc1)O)C)C,,,-
NC(CO)(CO)CO,TROMETHAMINE,8.08,Log unit,NC(CO)(CO)CO,,,-
OC(=O)C1=CC(O)=C(O)C(O)=C1,gallic acid,4.21,Log unit,OC(=O)c1cc(c(c(c1)O)O)O,,,-
CC1=C(O)C(CO)=C(CO)C=N1,Pyridoxine,8.96,Log unit,n1c(C)c(O)c(CO)c(CO)c1,,,-
CC(C)NC[C@H](O)COC1=CC=C(CC(N)=O)C=C1,atenolol,9.58,Log unit,N(CC(COc1ccc(CC(=O)N)cc1)O)C(C)C,,,-
[H]C(=O)C1=CC=C(O)C(OC)=C1,Vanillin,7.396,Log unit,Oc1c(OC)cc(cc1)C=O,,,-
[H]N(C([H])([H])[H])[C@@]([H])(C([H])([H])[H])C([H])([H])C1=C([H])C([H])=C([H])C([H])=C1[H],methamphetamine,9.99,Log unit,N(C(Cc1ccccc1)C)C,,,-
[H]OC1=C(C([H])=O)C(=C([H])N=C1C([H])([H])[H])C([H])([H])OP(=O)(O[H])O[H],PYRIDOXAL-5-PHOSPHATE,8.69,Log unit,Oc1c(c(cnc1C)COP(=O)(O)O)C=O,,,-
CCN(CC)CC(=O)NC1=C(C)C=CC=C1C,lidocaine,7.928,Log unit,N(CC(=O)Nc1c(cccc1C)C)(CC)CC,,,-
C1CCNCC1,piperidine,11.123,Log unit,N1CCCCC1,,,-
NCCC1=CNC=N1,Histamine,9.756,Log unit,NCCc1c[nH]cn1,,,-
[O-]C(=O)CC([O-])=O,malonic acid,5.66,Log unit,OC(=O)CC(=O)O,,,-
[H][C@@]12C[C@@]3([H])C(=C(O)[C@]1(O)C(=O)C(C(N)=O)=C(O)[C@H]2N(C)C)C(=O)C1=C(O)C=CC=C1[C@@]3(C)O,tetracycline,7.68,Log unit,N(C1C2CC3C(c4cccc(O)c4C(=O)C3=C(O)C2(C(=O)C(=C1O)C(=O)N)O)(C)O)(C)C,,,-
NC1=C2N=CN([C@@H]3O[C@H](CO)[C@@H](O)[C@H]3O)C2=NC=N1,Adenosine,12.35,Log unit,OC1C(n2c3c(c(N)ncn3)nc2)OC(C1O)CO,,,-
[H][C@@]12OC3=C(O)C=CC4=C3[C@@]11CCN[C@]([H])(C4)[C@]1([H])C=C[C@@H]2O,Normorphine,9.8,Log unit,Oc1c2c3c(cc1)CC1C4C3(C(O2)C(C=C4)O)CCN1,,,-
[H]OC(=O)[C@@]([H])(N([H])[H])C([H])([H])C1=C([H])C([H])=C(O[H])C([H])=C1[H],tyrosine,10.265,Log unit,Oc1ccc(cc1)CC(C(=O)O)N,,,-
[H][C@]12N(C)CC[C@@]1(C)C1=CC(OC(=O)NC)=CC=C1N2C,physostigmine,8.17,Log unit,N1(CCC2(c3cc(OC(=O)NC)ccc3N(C12)C)C)C,,,-
CC(=O)CC(C1=CC=CC=C1)C1=C(O)C2=C(OC1=O)C=CC=C2,Warfarin,5.02,Log unit,Oc1c2ccccc2oc(=O)c1C(c1ccccc1)CC(=O)C,,,-
OC(=O)C1=CC=CN=C1,nicotinic acid,4.83,Log unit,n1cccc(c1)C(=O)O,,,-
CC[C@H]1[C@@H](CC2=CN=CN2C)COC1=O,Pilocarpine,7.03,Log unit,n1cn(c(CC2COC(=O)C2CC)c1)C,,,-
O=C1CC2OCC=C3CN4CCC56C4CC3C2C5N1C1=CC=CC=C61,strychnine,8.26,Log unit,N12C3C4(C5N(c6c4cccc6)C(=O)CC4C5C(C(=CCO4)C2)C3)CC1,,,-
CN(C)CCN1C2=CC=CC=C2N(C)C2=CC=CC=C2C1=O,Dibenzepine,8.275,Log unit,N(CCN1C(=O)c2c(N(c3c1cccc3)C)cccc2)(C)C,,,-
CN1C(C(=O)NC2=CC=CC=N2)=C(O)C2=C(C=CC=C2)S1(=O)=O,Piroxicam,5.07,Log unit,OC1=C(N(S(=O)(=O)c2c1cccc2)C)C(=O)Nc1ccccn1,,,-
[H]O[C@@]1([H])C([H])([H])C([H])([H])[C@@]2([H])[C@]3([H])N(C([H])([H])[H])C([H])([H])C([H])([H])[C@@]22C4=C(C([H])=C([H])C(OC([H])([H])[H])=C4O[C@@]12[H])C3([H])[H],Dihydrocodeine,8.75,Log unit,N1(C2C3C4(c5c(c(ccc5C2)OC)OC4C(O)CC3)CC1)C,,,-
CNC(C)(C)CC1=CC=CC=C1,mephentermine,10.37,Log unit,N(C(Cc1ccccc1)(C)C)C,,,-
C[C@H](CCC1=CC=CC=C1)NC[C@@H](O)C1=CC(C(N)=O)=C(O)C=C1,Labetalol,9.36,Log unit,N(CC(c1ccc(c(c1)C(=O)N)O)O)C(CCc1ccccc1)C,,,-
OC(=O)C1=CC=CC=N1,Picolinic Acid,5.39,Log unit,n1ccccc1C(=O)O,,,-
CN1CCC[C@H]1C1=CN=CC=C1,Nicotine,3.13,Log unit,n1cccc(c1)C1CCCN1C,,,-
[H][C@@]12CC[C@H](O)[C@@]1(C)CC[C@]1([H])C3=C(CC[C@@]21[H])C=C(O)C=C3,"Estradiol, 17b",10.71,Log unit,Oc1cc2c(C3C(C4C(CC3)(C(CC4)O)C)CC2)cc1,,,-
CC(C)(S)[C@@H](N)C(O)=O,Penicillamine,7.83,Log unit,NC(C(C)(C)S)C(=O)O,,,-
CCCCC1C(=O)N(N(C1=O)C1=CC=CC=C1)C1=CC=CC=C1,Phenylbutazone,4.53,Log unit,C1(C(=O)N(N(c2ccccc2)C1=O)c1ccccc1)CCCC,,,-
OC(=O)\C=C\C1=CC=CC=C1,cinnamic acid,4.45,Log unit,OC(=O)C=Cc1ccccc1,,,-
CCC[C@@H](C)C1(CC)C(=O)NC(=O)NC1=O,Barbituric acid,8.13,Log unit,N1C(=O)C(C(=O)NC1=O)(C(CCC)C)CC,,,-
C\C=C\C=C\C(O)=O,sorbic acid,4.5,Log unit,OC(=O)C=CC=CC,,,-
OC(=O)C1=C(C=CC=C1)C(O)=O,phthalic acid,5.408,Log unit,OC(=O)c1ccccc1C(=O)O,,,-
COC1=CC=C(CC2=NC=CC3=CC(OC)=C(OC)C=C23)C=C1OC,Papaverine,6.43,Log unit,n1c(c2c(cc(OC)c(OC)c2)cc1)Cc1ccc(c(c1)OC)OC,,,-
CC(C)(C)NCC(O)C1=CC(O)=CC(O)=C1,Terbutaline,8.65,Log unit,N(C(C)(C)C)CC(O)c1cc(O)cc(O)c1,,,-
OC(=O)C1=CC=CC=C1O,Salicyclic acid,2.78,Log unit,OC(=O)c1c(cccc1)O,,,-
CN1C2=C(NC=N2)C(=O)N(C)C1=O,Theophylline,8.55,Log unit,[nH]1cnc2n(c(=O)n(c(=O)c12)C)C,,,-
OCCOCCN1CCN(CC1)[C@H](C1=CC=CC=C1)C1=CC=C(Cl)C=C1,Hydroxyzine,1.975,Log unit,N1(C(c2ccc(Cl)cc2)c2ccccc2)CCN(CC1)CCOCCO,,,-
NS(=O)(=O)c1cc(C(O)=O)c(NCc2ccco2)cc1Cl,Furosemide,10.4,Log unit,NS(=O)(=O)c1cc(c(NCc2occc2)cc1Cl)C(=O)O,,,-
OC(=O)\C=C/C([O-])=O,maleic acid,6.225,Log unit,OC(=O)C=CC(=O)O,,,-
OCCN1CCN(CC\C=C2\C3=CC=CC=C3SC3=C2C=C(Cl)C=C3)CC1,Clopenthixol,6.14,Log unit,N1(CCC=C2c3c(Sc4c2cc(cc4)Cl)cccc3)CCN(CC1)CCO,,,-
CNCC(O)C1=CC=C(O)C=C1,Synephrine,9.6,Log unit,N(C)CC(O)c1ccc(O)cc1,,,-
CNC(C)CC1=CC=CC=C1OC,Methoxyphenamine,10.45,Log unit,N(C(Cc1c(cccc1)OC)C)C,,,-
CN(C)[C@H]1[C@@H]2C[C@H]3C(=C(O)[C@]2(O)C(=O)C(C(N)=O)=C1O)C(=O)C1=C(O)C=CC(Cl)=C1[C@@]3(C)O,chlortetracycline,7.435,Log unit,N(C1C2C(C(=C3C(=O)c4c(C(C3C2)(O)C)c(ccc4O)Cl)O)(C(=O)C(=C1O)C(=O)N)O)(C)C,,,-
COC1=CC(=CC(OC)=C1OC)C(=O)OCCCN(C)CCN(C)CCCOC(=O)C1=CC(OC)=C(OC)C(OC)=C1,Hexobendine,8.47,Log unit,N(CCCOC(=O)c1cc(c(OC)c(c1)OC)OC)(CCN(C)CCCOC(=O)c1cc(c(c(c1)OC)OC)OC)C,,,-
OC(=O)C1=CC=NC=C1,iso-Nicotinic acid,4.87,Log unit,OC(=O)c1ccncc1,,,-
CN1CCN(CC1)C(C1=CC=CC=C1)C1=CC=CC=C1,CYCLIZINE,8.05,Log unit,N1(C(c2ccccc2)c2ccccc2)CCN(CC1)C,,,-
CNCC(C)C1=CC=CC=C1,Phenylpropylmethylamine,10.07,Log unit,N(CC(c1ccccc1)C)C,,,-
OC1=C(I)C=C(Cl)C2=C1N=CC=C2,clioquinol,8.16,Log unit,Oc1c2c(c(cc1I)Cl)cccn2,,,-
OCC(O)C(O)C(O)C(O)C(O)=O,Gluconic acid,3.62,Log unit,OC(=O)C(O)C(O)C(O)C(O)CO,,,-
OC(CNC1=CC=CC=N1)C1=CC=CC=C1,Phenyramidol,6.488,Log unit,n1c(cccc1)NCC(c1ccccc1)O,,,-
CCCNC(=N)NC(=N)NC1=CC=C(Cl)C=C1,N1-p-Chlorophenyl-N5-alkylbigu,11.02,Log unit,N=C(NC(=N)Nc1ccc(cc1)Cl)NCCC,,,-
CS(=O)(=O)NC1=CC=C(C=C1OC1=CC=CC=C1)N(=O)=O,nimesulide,6.51,Log unit,N(c1c(Oc2ccccc2)cc(cc1)[N+](=O)[O-])S(=O)(=O)C,,,-
CCNC(=N)NC(=N)NC1=CC=C(Cl)C=C1,N1-p-Chlorophenyl-N5-alkylbigu,11.01,Log unit,N=C(NC(=N)Nc1ccc(cc1)Cl)NCC,,,-
COC1=C2OC3C(O)C=C[C@H]4[C@H]5CC(C=C1)=C2[C@@]34CCN5C,Codeine,8.22,Log unit,N1(CCC23c4c5c(OC)ccc4CC1C2C=CC(C3O5)O)C,,,-
C[C@](N)(CC1=CC(O)=C(O)C=C1)C(O)=O,L-a-Methyldopa,2.218,Log unit,OC(=O)C(Cc1cc(O)c(cc1)O)(C)N,,,-
CC[C@@H](CO)NC(=O)[C@H]1CN(C)[C@@H]2CC3=CNC4=CC=CC(=C34)C2=C1,Methylergonovine,6.65,Log unit,N1(C2Cc3c[nH]c4cccc(C2=CC(C1)C(=O)NC(CC)CO)c34)C,,,-
CN1CC[C@]23[C@H]4OC5=C(O)C=CC(C[C@@H]1[C@@H]2CC[C@@H]4O)=C35,Dihydromorphine,9.35,Log unit,N1(C2C3C4(c5c(c(ccc5C2)O)OC4C(O)CC3)CC1)C,,,-
CC1(C)S[C@@H]2[C@H](N)C(=O)N2[C@H]1C(O)=O,6-Aminopenicillanic Acid,2.3,Log unit,OC(=O)C1N2C(C(C2=O)N)SC1(C)C,,,-
C[C@@H](N)[C@@H](O)C1=CC=CC=C1,Norephedrine,9.05,Log unit,NC(C(c1ccccc1)O)C,,,-
COC(=O)[C@H](CC1=CC=CC=C1)NC(=O)[C@@H](N)CC(O)=O,ASPARTAME,3.19,Log unit,OC(=O)CC(C(=O)NC(C(=O)OC)Cc1ccccc1)N,,,-
C[C@H](O)C(O)=O,"Latic acid, D(+)",3.861,Log unit,OC(=O)C(C)O,,,-
O[C@@H](CC(O)=O)C(O)=O,malic acid,5.097,Log unit,OC(=O)CC(C(=O)O)O,,,-
C[C@@H](O)C(O)=O,"Latic acid, D(-)",3.861,Log unit,OC(=O)C(C)O,,,-
OC(O)=O,Carbonic acid,10.39,Log unit,OC(=O)O,,,-
C[C@]12CC[C@H]3C(=CCC4=CC(O)=CC=C34)[C@@H]1CC[C@@H]2O,17b-Dihydroequilin,9.77,Log unit,Oc1ccc2C3C(=CCc2c1)C1C(C(O)CC1)(C)CC3,,,-
C[C@@H](N)COC1=C(C)C=CC=C1C,Mexiletine,9.14,Log unit,NC(COc1c(C)cccc1C)C,,,-
COC1=C2O[C@H]3[C@@H](O)C=CC4[C@H]5CC(C=C1)=C2[C@@]34CCN5,Norcodeine,9.23,Log unit,N1C2C3C4(C(C(C=C3)O)Oc3c4c(C2)ccc3OC)CC1,,,-
C[C@@H](OC1=CC=CC=C1)C(=O)N[C@H]1[C@H]2SC(C)(C)[C@@H](N2C1=O)C(O)=O,Phenethicillin,2.73,Log unit,OC(=O)C1N2C(=O)C(NC(=O)C(Oc3ccccc3)C)C2SC1(C)C,,,-
CC(C)NC[C@@H](O)C1=CC(O)=C(O)C=C1,isoproterenol,10.07,Log unit,Oc1c(ccc(C(CNC(C)C)O)c1)O,,,-
CCCCNC(=N)NC(=N)NC1=CC=C(Cl)C=C1,N1-p-Chlorophenyl-N5-alkylbigu,10.83,Log unit,N=C(NC(=N)Nc1ccc(cc1)Cl)NCCCC,,,-
CN1CCCC(C1)C(O)=O,Dihydroarecaidine,9.7,Log unit,N1(CC(C(=O)O)CCC1)C,,,-
COC(=O)C1CCCN(C)C1,Dihydroarecaidine methyl ester,8.39,Log unit,N1(CC(C(=O)OC)CCC1)C,,,-
COC1=C2O[C@H]3[C@@H](O)C=CC4[C@H]5CC(C=C1)=C2[C@@]34CCN5CCC#N,"Norcodeine, N-(2-cyano)ethyl",5.68,Log unit,N1(C2C3C4(c5c(C2)ccc(OC)c5OC4C(C=C3)O)CC1)CCC#N,,,-
CC(=O)OC(CC(O)=O)C[N+](C)(C)C,Deccyl carnitine,3.6,Log unit,OC(=O)CC(OC(=O)C)C[N+](C)(C)C,,,-
CCCC(=O)OC(CC(O)=O)C[N+](C)(C)C,Deccyl carnitine,3.56,Log unit,OC(=O)CC(OC(=O)CCC)C[N+](C)(C)C,,,-
CCCCCCCC(=O)OC(CC(O)=O)C[N+](C)(C)C,Deccyl carnitine,3.6,Log unit,OC(=O)CC(OC(=O)CCCCCCC)C[N+](C)(C)C,,,-
CCCCCCCCCC(=O)OC(CC(O)=O)C[N+](C)(C)C,Deccyl carnitine,3.65,Log unit,OC(=O)CC(OC(=O)CCCCCCCCC)C[N+](C)(C)C,,,-
C[C@]12CC[C@H]3C(=CCC4=CC(O)=CC=C34)[C@@H]1CC[C@H]2O,17a-Dihydroequilin,10.29,Log unit,Oc1ccc2C3C(=CCc2c1)C1C(C(O)CC1)(C)CC3,,,-
CCCCCCCC\C=C\CCCCCCCC(=O)OCC(COP(O)(=O)OCCN)OC(=O)CCCCCCC\C=C\CCCCCCCC,"1,2-Dioleoylphosphatidylethanolamine",7.55,Log unit,NCCOP(=O)(OCC(OC(=O)CCCCCCCC=CCCCCCCCC)COC(=O)CCCCCCCC=CCCCCCCCC)O,,,-
N[C@@H](CC1=CC=CC=C1)C(=O)N[C@H](CC1=CC=CC=C1)C(O)=O,Phe-Phe,7.18,Log unit,NC(C(=O)NC(C(=O)O)Cc1ccccc1)Cc1ccccc1,,,-
N[C@@H](CC1=CC=CC=C1)C(=O)N[C@H](CC1=CC=CC=C1)C(=O)N[C@H](CC1=CC=CC=C1)C(O)=O,Phe-Phe-Phe,7.04,Log unit,NC(C(=O)NC(C(=O)NC(C(=O)O)Cc1ccccc1)Cc1ccccc1)Cc1ccccc1,,,-
CCOC(=O)C1=C(O)C2=C(OC(\C=N\N3CC(CN4CCOCC4)OC3=O)=C2)N=C1,ebifuramin,5.24,Log unit,Oc1c(C(=O)OCC)cnc2oc(C=NN3C(=O)OC(CN4CCOCC4)C3)cc21,,,-
CCOC(=O)[C@H](CCC1=CC=CC=C1)N[C@@H](C)C(=O)N1CCC[C@@H]1C(O)=O,enalapril,5.36,Log unit,N(C(C(=O)N1C(C(=O)O)CCC1)C)C(C(=O)OCC)CCc1ccccc1,,,-
CSCC[C@H](NC(=O)[C@@H](CC1=CC=CC=C1)NC(=O)CNC(=O)CNC(=O)[C@H](N)CC1=CC=C(O)C=C1)C(O)=O,Enkephalin,7.77,Log unit,NC(C(=O)NCC(=O)NCC(=O)NC(C(=O)NC(C(=O)O)CCSC)Cc1ccccc1)Cc1ccc(O)cc1,,,-
N[C@H]1[C@H](O)O[C@H](COP(O)(O)=O)[C@@H](O)[C@@H]1O,Glucosamine-6-phosphate,8.14,Log unit,NC1C(C(C(OC1O)COP(=O)(O)O)O)O,,,-
C[C@H]1CCN2CCC[C@@H]12,Heliotridane,11.4,Log unit,N12C(C(C)CC1)CCC2,,,-
CC1=CCN2CCC[C@@H]12,Heliotridene,10.55,Log unit,N12C(C(=CC1)C)CCC2,,,-
NCCC1=C(I)NC=N1,"Histamine, monoiodo",9.2,Log unit,NCCc1c([nH]cn1)I,,,-
NCCC1=C(I)NC(I)=N1,"Histamine, diiodo",8.2,Log unit,NCCc1c([nH]c(n1)I)I,,,-
CN[C@@H](C)CC1=CC=C(O)C=C1,"Methaphetamine, 4-hydroxy",9.62,Log unit,N(C)C(C)Cc1ccc(O)cc1,,,-
COC1=CC=C(OC)C(=C1)[C@H](O)[C@@H](C)N,METHOXAMINE,9.32,Log unit,NC(C(O)c1c(OC)ccc(OC)c1)C,,,-
CN1[C@H]2CC[C@@H]1[C@@H]([C@@H](O)C2)C(O)=O,Pseudoecgonine,9.7,Log unit,N1(C2C(C(CC1CC2)O)C(=O)O)C,,,-
COC(=O)[C@H]1[C@H]2CC[C@@H](C[C@@H]1O)N2C,"Pseudoecgonine, methyl ester",8.15,Log unit,N1(C2C(C(O)CC1CC2)C(=O)OC)C,,,-
CN1[C@H]2CC[C@@H]1C[C@@H](O)C2,Pseudotropine,10.06,Log unit,N1(C2CCC1CC(C2)O)C,,,-
CN1[C@H]2CC[C@@H]1C[C@H](O)C2,TROPINE,10.33,Log unit,N1(C2CCC1CC(C2)O)C,,,-
CN(C)CC[C@]12[C@H]3OC4=C(O)C=CC(CC[C@@H]1CC[C@@H]3O)=C24,Tetrahydro-a-morphimethine,8.65,Log unit,N(CCC12C3C(CCC1CCc1ccc(c(c21)O3)O)O)(C)C,,,-
OC[C@H]1O[C@H](C[C@H]1O)N1C=NC2=C1N=CNC[C@H]2O,Pentostatin,5.5,Log unit,N1=CNCC(O)c2ncn(C3OC(CO)C(O)C3)c21,,,-
CC1(C)S[C@@H]2[C@H](NC(=O)C3(N)CCCC3)C(=O)N2[C@H]1C(O)=O,WY-7953,2.62,Log unit,OC(=O)C1N2C(=O)C(NC(=O)C3(CCCC3)N)C2SC1(C)C,,,-
CCC[S@](=O)C1=CC=C2NC(NC(=O)OC)=NC2=C1,Albendazole sulphoxide,3.28,Log unit,n1c([nH]c2c1cc(S(=O)CCC)cc2)NC(=O)OC,,,-
CN1CCN(CC1)[C@H](C1=CC=CC=C1)C1=CC=C(Cl)C=C1,Chlorcyclizine,7.65,Log unit,N1(CCN(C(c2ccc(cc2)Cl)c2ccccc2)CC1)C,,,-
CN(C)[C@H]1[C@@H]2[C@@H](O)[C@@H]3C(=C(O)[C@]2(O)C(=O)C(C(N)=O)=C1O)C(=O)C1=C(O)C=CC=C1[C@@]3(C)O,oxytetracycline,7.32,Log unit,N(C1C2C(C3C(c4cccc(O)c4C(=O)C3=C(O)C2(C(=O)C(=C1O)C(=O)N)O)(O)C)O)(C)C,,,-
CN1CC[C@]23[C@H]4OC5=C(O[C@@H]6O[C@@H]([C@@H](O)[C@@H](O)[C@H]6O)C(O)=O)C=CC(C[C@@H]1[C@@H]2C=C[C@@H]4O)=C35,Morphine-3-glucuronide,8.21,Log unit,N1(C2C3C=CC(C4Oc5c(OC6C(C(C(C(O6)C(=O)O)O)O)O)ccc(C2)c5C34CC1)O)C,,,-
CN1CC[C@]23[C@H]4OC5=C(O)C=CC(C[C@@H]1[C@@H]2C=C[C@@H]4O[C@H]1O[C@@H]([C@H](O)[C@H](O)[C@H]1O)C(O)=O)=C35,Morphine-6-glucuronide,8.14,Log unit,N1(C2C3C=CC(OC4OC(C(O)C(O)C4O)C(=O)O)C4C3(c3c(c(O)ccc3C2)O4)CC1)C,,,-
CC1=NC2=C(C=CC=C2)N=C1,2-Methylquinoxaline,0.95,Log unit,n1c(cnc2ccccc12)C,1,25,?C
NC1=CC=C(C=C1)C(O)=O,4-Aminobenzoic acid,4.874,Log unit,OC(=O)c1ccc(N)cc1,,,-
CC1(C)S[C@@H]2[C@H](NC(=O)[C@H](N)C3=CC=CC=C3)C(=O)N2[C@H]1C(O)=O,Ampicillin,7.25,Log unit,NC(C(=O)NC1C2N(C1=O)C(C(S2)(C)C)C(=O)O)c1ccccc1,,,-
COC1=NC2=C(C=CC=C2)N=C1,2-Methoxyquinoxaline,0.28,Log unit,n1cc(nc2ccccc12)OC,1,25,?C
[H]C(O)=O,Formic acid,3.742,Log unit,OC=O,,,-
CCOC(=O)C1=CC=C(N)C=C1,Benzocaine,2.515,Log unit,Nc1ccc(C(=O)OCC)cc1,,,-
[H][C@]12SC(C)(C)[C@@H](N1C(=O)[C@H]2NC(=O)COC1=CC=CC=C1)C(O)=O,Penicillin V,2.735,Log unit,OC(=O)C1N2C(=O)C(NC(=O)COc3ccccc3)C2SC1(C)C,,,-
CC(=O)OC1=CC=CC=C1C(O)=O,Aspirin,3.47,Log unit,OC(=O)c1c(OC(=O)C)cccc1,,,-
OC[C@H](O)[C@H]1OC(=O)C(O)=C1O,Ascorbic acid,11.39,Log unit,OC1=C(C(C(O)CO)OC1=O)O,,,-
CCC1(C(=O)NC(=O)NC1=O)C1=CC=CC=C1,Barbituric acid,7.48,Log unit,N1C(=O)C(C(=O)NC1=O)(c1ccccc1)CC,,,-
C=CCC1(CC=C)C(=O)NC(=O)NC1=O,Barbituric acid,7.81,Log unit,N1C(=O)C(CC=C)(CC=C)C(=O)NC1=O,,,-
CSC1=NC2=C(C=CC=C2)N=C1,2-methylthioquinoxaline,0.275,Log unit,n1cc(SC)nc2ccccc12,2,25,?C
CCC1(CC)C(=O)NC(=O)NC1=O,Barbituric acid,7.9798,Log unit,N1C(=O)C(CC)(CC)C(=O)NC1=O,,,-
CCC1(C(C)C)C(=O)NC(=O)NC1=O,Barbituric acid,8.14,Log unit,N1C(=O)NC(=O)C(C1=O)(C(C)C)CC,,,-
COC(=O)C1=CCCN(C)C1,Arecaidine methyl ester,7.64,Log unit,N1(CC(=CCC1)C(=O)OC)C,,,-
O=C1NC(=O)C2(CCCC2)C(=O)N1,Barbituric acid,8.83,Log unit,N1C(=O)C2(CCCC2)C(=O)NC1=O,,,-
O=C1NC(=O)C(C(=O)N1)(C1=CC=CC=C1)C1=CC=CC=C1,Barbituric acid,7.3,Log unit,N1C(=O)C(C(=O)NC1=O)(c1ccccc1)c1ccccc1,,,-
[H][C@]12SC(C)(C)[C@@H](N1C(=O)[C@H]2NC(=O)CC1=CC=CC=C1)C(O)=O,Benzylpenicillin,2.72,Log unit,OC(=O)C1N2C(C(NC(=O)Cc3ccccc3)C2=O)SC1(C)C,,,-
OB(O)O,BORIC ACID,9.234,Log unit,O[B](O)O,,,-
[H]N([H])[C@@]([H])(C([H])([H])[H])C([H])([H])C1=C([H])C([H])=C([H])C([H])=C1[H],Amphetamine,9.94,Log unit,NC(Cc1ccccc1)C,,,-
CC1(C)C(=O)NC(=O)NC1=O,Barbituric acid,8.505,Log unit,N1C(=O)C(C(=O)NC1=O)(C)C,,,-
CN1C=NC(=C1SC1=NC=NC2=C1NC=N2)[N+]([O-])=O,Azathioprine,7.905,Log unit,[nH]1c2c(Sc3c(ncn3C)[N+](=O)[O-])ncnc2nc1,,,-
CC(C)NCC(O)COC1=CC=C(CC(N)=O)C=C1,atenolol,9.58,Log unit,N(CC(COc1ccc(CC(=O)N)cc1)O)C(C)C,,,-
O=C1NC(=O)C2(CCCCC2)C(=O)N1,Barbituric acid,8.88,Log unit,N1C(=O)C2(CCCCC2)C(=O)NC1=O,,,-
[H]OC(=O)[C@]1([H])N2C(=O)[C@@]([H])(N([H])C(=O)C([H])(OC3=C([H])C([H])=C([H])C([H])=C3[H])C([H])([H])[H])[C@@]2([H])SC1(C([H])([H])[H])C([H])([H])[H],Phenethicillin,2.73,Log unit,OC(=O)C1N2C(=O)C(NC(=O)C(Oc3ccccc3)C)C2SC1(C)C,,,-
[H][C@@]12C[C@@]3([H])C(=C(O)[C@]1(O)C(=O)C(C(N)=O)=C(O)[C@H]2N(C)C)C(=O)C1=C(O)C=CC=C1[C@@]3(C)O,tetracycline,9.69,Log unit,Oc1cccc2c1C(=O)C1=C(C3(C(CC1C2(C)O)C(C(=C(C3=O)C(=O)N)O)N(C)C)O)O,,,-
C1=CC2=NC3=CC=CC=C3N=C2C=C1,Phenazine,0.9,Log unit,n1c2ccccc2nc2ccccc12,n,25,?C
O=C1NC(=O)C2(CC2)C(=O)N1,Barbituric acid,8.73,Log unit,N1C(=O)C2(C(=O)NC1=O)CC2,,,-
CCC1(CC=C)C(=O)NC(=O)NC1=O,Barbituric acid,7.89,Log unit,N1C(=O)C(CC=C)(CC)C(=O)NC1=O,,,-
CC(O)=O,acetic acid,4.756,Log unit,OC(=O)C,,,-
CCC1(C)C(=O)NC(=O)NC1=O,Barbituric acid,8.28,Log unit,N1C(=O)C(CC)(C)C(=O)NC1=O,,,-
CN(C)C1=C(C)N(C)N(C1=O)C1=CC=CC=C1,Aminopyrine,5.06,Log unit,N(c1c(=O)n(n(C)c1C)c1ccccc1)(C)C,,,-