Smiles,Name,pKa,pKa Unit,Ionizable center smiles,IC group,Temperature,Temperature Unit
OP([O-])(=O)C1=CC=CC=C1Cl,o-chlorophenylphosphonic acid,6.98,Log unit,OP(=O)(c1c(Cl)cccc1)[O-],,25,?C
OP(O)(=O)C1=CC(Cl)=CC=C1,m-chlorophenylphosphonic acid,1.55,Log unit,OP(=O)(c1cc(Cl)ccc1)O,,25,?C
OP([O-])(=O)C1=CC(Cl)=CC=C1,m-chlorophenylphosphonic acid,6.65,Log unit,OP(=O)(c1cc(Cl)ccc1)[O-],,25,?C
OP(O)(=O)C1=CC=C(Cl)C=C1,p-chlorophenylphosphonic acid,1.665,Log unit,OP(=O)(c1ccc(Cl)cc1)O,,25,?C
OP([O-])(=O)C1=CC=C(Cl)C=C1,p-chlorophenylphosphonic acid,6.75,Log unit,OP(=O)(c1ccc(Cl)cc1)[O-],,25,?C
OP([O-])(=O)C1=C(Cl)C=CC(Cl)=C1,"2,5-di-chlorophenylphosphonic acid",6.63,Log unit,OP(=O)(c1c(Cl)ccc(Cl)c1)[O-],,25,?C
OP(O)(=O)C1=CC=CC=C1Br,o-bromophenylphosphonic acid,1.64,Log unit,OP(=O)(c1c(Br)cccc1)O,,25,?C
OP([O-])(=O)C1=CC=CC=C1Br,o-bromophenylphosphonic acid,7,Log unit,OP(=O)(c1c(Br)cccc1)[O-],,25,?C
OP(O)(=O)C1=CC(Br)=CC=C1,m-bromophenylphosphonic acid,1.45,Log unit,OP(=O)(c1cc(Br)ccc1)O,,25,?C
OP([O-])(=O)C1=CC(Br)=CC=C1,m-bromophenylphosphonic acid,6.69,Log unit,OP(=O)(c1cc(Br)ccc1)[O-],,25,?C
OP(O)(=O)C1=CC=C(Br)C=C1,p-bromophenylphosphonic acid,1.875,Log unit,OP(=O)(c1ccc(Br)cc1)O,,25,?C
OP([O-])(=O)C1=CC=C(Br)C=C1,p-bromophenylphosphonic acid,6.7,Log unit,OP(=O)(c1ccc(Br)cc1)[O-],,25,?C
OP(O)(=O)C1=CC=CC=C1I,o-iodophenylphosphonic acid,1.74,Log unit,OP(=O)(c1c(I)cccc1)O,,25,?C
OP([O-])(=O)C1=CC=CC=C1I,o-iodophenylphosphonic acid,7.06,Log unit,OP(=O)(c1c(I)cccc1)[O-],,25,?C
OC1=CC(=CC=C1)P(O)(O)=O,phenol-3-phosphonic acid,1.78,Log unit,OP(=O)(O)c1cccc(c1)O,,25,?C
OC1=CC(=CC=C1)P(O)([O-])=O,phenol-3-phosphonic acid,7.03,Log unit,OP(=O)([O-])c1cccc(c1)O,,25,?C
OC1=CC(=CC=C1)P([O-])([O-])=O,phenol-3-phosphonic acid,10.2,Log unit,Oc1cc(P(=O)([O-])[O-])ccc1,,25,?C
OC1=CC=C(C=C1)P(O)(O)=O,phenol-4-phosphonic acid,1.99,Log unit,OP(=O)(O)c1ccc(O)cc1,,25,?C
OC1=CC=C(C=C1)P(O)([O-])=O,phenol-4-phosphonic acid,7.25,Log unit,OP(=O)([O-])c1ccc(O)cc1,,25,?C
OC1=CC=C(C=C1)P([O-])([O-])=O,phenol-4-phosphonic acid,9.9,Log unit,Oc1ccc(P(=O)([O-])[O-])cc1,,25,?C
COC1=CC=CC=C1P(O)(O)=O,o-methoxyphenylphosphonic acid,2.16,Log unit,OP(=O)(O)c1ccccc1OC,,25,?C
COC1=CC=CC=C1P(O)([O-])=O,o-methoxyphenylphosphonic acid,7.77,Log unit,OP(=O)([O-])c1ccccc1OC,,25,?C
COC1=CC=C(C=C1)P(O)(O)=O,p-methoxyphenylphosphonic acid,2.1,Log unit,OP(=O)(O)c1ccc(OC)cc1,,25,?C
COC1=CC=C(C=C1)P(O)([O-])=O,p-methoxyphenylphosphonic acid,7.15,Log unit,OP(=O)([O-])c1ccc(OC)cc1,,25,?C
CCOC1=CC=C(C=C1)P(O)(O)=O,p-ethoxyphenylphosphonic acid,2.06,Log unit,OP(=O)(O)c1ccc(OCC)cc1,,25,?C
CCOC1=CC=C(C=C1)P(O)([O-])=O,p-ethoxyphenylphosphonic acid,7.28,Log unit,OP(=O)([O-])c1ccc(OCC)cc1,,25,?C
OP(O)(=O)C1=CC=CC(=C1)N(=O)=O,m-Nitrophenylphosphonic acid,1.3,Log unit,OP(=O)(O)c1cccc(c1)N(=O)=O,,25,?C
OP([O-])(=O)C1=CC=CC(=C1)N(=O)=O,m-Nitrophenylphosphonic acid,6.27,Log unit,OP(=O)([O-])c1cccc(c1)N(=O)=O,,25,?C
OP(O)(=O)C1=CC=C(C=C1)N(=O)=O,p-nitrophenylphosphonic acid,1.24,Log unit,OP(=O)(O)c1ccc(N(=O)=O)cc1,,25,?C
OP([O-])(=O)C1=CC=C(C=C1)N(=O)=O,p-nitrophenylphosphonic acid,6.23,Log unit,OP(=O)([O-])c1ccc(N(=O)=O)cc1,,25,?C
NC1=C(C=CC=C1)P(O)([O-])=O,o-aminophenylphosphonic acid,4.1,Log unit,Nc1c(P(=O)(O)[O-])cccc1,,25,?C
NC1=C(C=CC=C1)P(O)([O-])=O,o-aminophenylphosphonic acid,7.3,Log unit,OP(=O)(c1c(N)cccc1)[O-],,25,?C
NC1=CC(=CC=C1)P(O)([O-])=O,m-Aminophenylphosphonic acid,7.16,Log unit,OP(=O)(c1cc(N)ccc1)[O-],,25,?C
NC1=CC=C(C=C1)P(O)([O-])=O,p-aminophenylphosphonic acid,7.53,Log unit,OP(=O)(c1ccc(N)cc1)[O-],,25,?C
C[NH2+]C1=CC(=CC=C1)P(O)(O)=O,m-methylaminophenylphosphonic acid,1.1,Log unit,OP(=O)(O)c1cccc(c1)[NH+]C,,25,?C
CNC1=CC(=CC=C1)P(O)([O-])=O,m-methylaminophenylphosphonic acid,4.72,Log unit,N(c1cc(P(=O)(O)[O-])ccc1)C,,25,?C
CNC1=CC(=CC=C1)P(O)([O-])=O,m-methylaminophenylphosphonic acid,7.3,Log unit,OP(=O)([O-])c1cccc(c1)NC,,25,?C
CNC1=CC=C(C=C1)P(O)([O-])=O,p-aminophenylphosphonic acid,7.85,Log unit,OP(=O)(c1ccc(NC)cc1)[O-],,25,?C
C[NH+](C)C1=CC=C(C=C1)P(O)(O)=O,p-dimethylaminophenylphosphonic acid,2,Log unit,OP(=O)(O)c1ccc([N+](C)C)cc1,,25,?C
CN(C)C1=CC=C(C=C1)P(O)([O-])=O,p-dimethylaminophenylphosphonic acid,4.2,Log unit,N(c1ccc(P(=O)(O)[O-])cc1)(C)C,,25,?C
CN(C)C1=CC=C(C=C1)P(O)([O-])=O,p-dimethylaminophenylphosphonic acid,7.35,Log unit,OP(=O)([O-])c1ccc(N(C)C)cc1,,25,?C
CC[NH2+]C1=CC(=CC=C1)P(O)(O)=O,m-ethylaminophenylphosphonic acid,1.1,Log unit,OP(=O)(O)c1cccc(c1)[NH+]CC,,25,?C
CCNC1=CC(=CC=C1)P(O)([O-])=O,m-ethylaminophenylphosphonic acid,4.9,Log unit,N(c1cc(P(=O)(O)[O-])ccc1)CC,,25,?C
CCNC1=CC(=CC=C1)P(O)([O-])=O,m-ethylaminophenyl-phosphonic acid,7.2,Log unit,OP(=O)([O-])c1cccc(c1)NCC,,25,?C
CN(C)C1=CC(=CC=C1)P(O)([O-])=O,m-isopropylaminophenyl-phosphonic acid,7.33,Log unit,OP(=O)([O-])c1cccc(c1)N(C)C,,25,?C
OP([O-])(=O)C1=CC=C(NNC2=CC=CC=C2)C=C1,hydrazinobenzyl-phosphonic acid,7.54,Log unit,OP(=O)(c1ccc(NNc2ccccc2)cc1)[O-],,25,?C
NC(=O)CC1=CC=C(C=C1)P(O)([O-])=O,p-acetylaminophenyl-phosphonic acid,7.1,Log unit,OP(=O)(c1ccc(CC(=O)N)cc1)[O-],,25,?C
CC1=CC=C(C(Br)=C1)P(O)(O)=O,2-bromo-p-tolylphosphonic acid,1.81,Log unit,OP(=O)(c1c(Br)cc(cc1)C)O,,25,?C
CC1=CC=C(C(Br)=C1)P(O)([O-])=O,2-bromo-p-tolylphosphonic acid,7.15,Log unit,OP(=O)(c1c(Br)cc(cc1)C)[O-],,25,?C
OC(=O)C1=CC=CC=C1P(O)(O)=O,benzoic acid-2-phosphonic acid,1.71,Log unit,OP(=O)(O)c1ccccc1C(=O)O,,25,?C
OC(=O)C1=CC=CC=C1P(O)([O-])=O,benzoic acid-2-phosphonic acid,3.78,Log unit,OC(=O)c1c(P(=O)(O)[O-])cccc1,,25,?C
OP([O-])(=O)C1=CC=CC=C1C([O-])=O,benzoic acid-2-phosphonic acid,9.17,Log unit,OP(=O)([O-])c1ccccc1C(=O)[O-],,25,?C
OC(=O)C1=CC(=CC=C1)P(O)(O)=O,benzoic acid-3-phosphonic acid,1.55,Log unit,OP(=O)(O)c1cccc(c1)C(=O)O,,25,?C
OC(=O)C1=CC(=CC=C1)P(O)([O-])=O,benzoic acid-3-phosphonic acid,4.03,Log unit,OC(=O)c1cc(P(=O)(O)[O-])ccc1,,25,?C
OP([O-])(=O)C1=CC=CC(=C1)C([O-])=O,benzoic acid-3-phosphonic acid,7.03,Log unit,OP(=O)([O-])c1cccc(c1)C(=O)[O-],,25,?C
OC(=O)C1=CC=C(C=C1)P(O)(O)=O,benzoic acid-4-phosphonic acid,1.5,Log unit,OP(=O)(O)c1ccc(C(=O)O)cc1,,25,?C
OC(=O)C1=CC=C(C=C1)P(O)([O-])=O,benzoic acid-4-phosphonic acid,3.95,Log unit,OC(=O)c1ccc(P(=O)([O-])O)cc1,,25,?C
OP([O-])(=O)C1=CC=C(C=C1)C([O-])=O,benzoic acid-4-phosphonic acid,6.89,Log unit,OP(=O)([O-])c1ccc(C(=O)[O-])cc1,,25,?C
COC1=CC=C(C=C1Cl)P(O)(O)=O,3-chloro-4-methoxyphenylphosphonic acid,2.25,Log unit,OP(=O)(c1cc(Cl)c(cc1)OC)O,,25,?C
COC1=CC=C(C=C1Cl)P(O)([O-])=O,3-chloro-4-methoxyphenylphosphonic acid,6.7,Log unit,OP(=O)(c1cc(Cl)c(cc1)OC)[O-],,25,?C
OP(O)(=O)C1=CC=C(C=C1Cl)N(=O)=O,2-chloro-4-nitrophenylphosphonic acid,1.12,Log unit,OP(=O)(c1c(Cl)cc(cc1)N(=O)=O)O,,25,?C
OP([O-])(=O)C1=CC=C(C=C1Cl)N(=O)=O,2-chloro-4-nitrophenylphosphonic acid,6.14,Log unit,OP(=O)(c1c(Cl)cc(cc1)N(=O)=O)[O-],,25,?C
NC1=CC(Cl)=C(C=C1)P(O)([O-])=O,2-chloro-4-aminophenylphosphonic acid,7.33,Log unit,OP(=O)([O-])c1c(Cl)cc(N)cc1,,25,?C
OP([O-])(=O)C1=C(Cl)C=CC(=C1)N(=O)=O,2-bromo-5-nitrophenylphosphonic acid,6.14,Log unit,OP(=O)([O-])c1c(Cl)ccc(N(=O)=O)c1,,25,?C
OC1=CC(=CC=C1P(O)(O)=O)N(=O)=O,2-hydroxy-4-nitrophenylphosphonic acid,1.22,Log unit,OP(=O)(O)c1ccc(N(=O)=O)cc1O,,25,?C
OC1=CC(=CC=C1P(O)([O-])=O)N(=O)=O,2-hydroxy-4-nitrophenylphosphonic acid,5.4,Log unit,OP(=O)([O-])c1ccc(N(=O)=O)cc1O,,25,?C
COC1=CC(=CC=C1P(O)(O)=O)N(=O)=O,2-methoxy-4-nitrophenylphosphonic acid,1.53,Log unit,OP(=O)(O)c1ccc(N(=O)=O)cc1OC,,25,?C
COC1=CC(=CC=C1P(O)([O-])=O)N(=O)=O,2-methoxy-4-nitrophenylphosphonic acid,6.96,Log unit,OP(=O)([O-])c1ccc(N(=O)=O)cc1OC,,25,?C
COC1=CC(N)=CC=C1P(O)([O-])=O,2-methoxy-4-aminoophenylphosphonic acid,8.22,Log unit,OP(=O)([O-])c1ccc(N)cc1OC,,25,?C
CP(O)=O,METHYLPHOSPHINIC ACID,3.08,Log unit,OP(=O)C,,25,?C
CCP(O)=O,Ethylphosphinic acid,3.29,Log unit,OP(=O)CC,,25,?C
CCCP(O)=O,n-propylphosphinic acid,3.46,Log unit,OP(=O)CCC,,25,?C
CC(C)P(O)=O,iso-propylphosphinic acid,3.56,Log unit,OP(=O)C(C)C,,25,?C
CCCCP(O)=O,n-butylphosphinic acid,3.41,Log unit,OP(=O)CCCC,,25,?C
OP(=O)C1=CC=CC=C1,Phenylphosphinic acid,2.1,Log unit,OP(=O)c1ccccc1,,25,?C
OP(=O)C1=CC=C(Br)C=C1,p-bromophenylphosphinic acid,2.1,Log unit,OP(=O)c1ccc(Br)cc1,,25,?C
COC1=CC=C(C=C1)P(O)=O,p-methoxyphenylphosphinic acid,2.35,Log unit,OP(=O)c1ccc(OC)cc1,,25,?C
C[NH+](C)C1=CC=C(C=C1)P(O)=O,p-dimethylaminophenylphosphinic acid,2.1,Log unit,OP(=O)c1ccc([N+](C)C)cc1,,25,?C
CN(C)C1=CC=C(C=C1)P([O-])=O,p-dimethylaminophenylphosphinic acid,4.1,Log unit,N(c1ccc(P(=O)[O-])cc1)(C)C,,25,?C
OP(O)(=O)OC1=CC=CC2=C1C=CC=C2,1-napthyl dihydrogen phosphate,0.97,Log unit,OP(=O)(Oc1cccc2ccccc12)O,,25,?C
OP([O-])(=O)OC1=CC=CC2=C1C=CC=C2,1-napthyl dihydrogen phosphate,5.85,Log unit,OP(=O)(Oc1cccc2ccccc12)[O-],,25,?C
OP(O)(=O)OC1=CC2=C(C=CC=C2)C=C1,2-napthyl dihydrogen phosphate,1.25,Log unit,OP(=O)(Oc1cc2ccccc2cc1)O,,25,?C
OP([O-])(=O)OC1=CC2=C(C=CC=C2)C=C1,2-napthyl dihydrogen phosphate,5.83,Log unit,OP(=O)(Oc1cc2ccccc2cc1)[O-],,25,?C
OC1=CC=C(C=C1)N=NC1=CC=C(C=C1)P(O)([O-])=O,4-(4-hydrxyphenylazo)phenylphosphonic acid,6.4,Log unit,OP(=O)(c1ccc(cc1)N=Nc1ccc(O)cc1)[O-],,25,?C
O[As](O)(O)=O,arsonic acid,2.73,Log unit,O[As](=O)(O)O,,25,?C
O[As](O)([O-])=O,arsonic acid,6.77,Log unit,O[As](=O)(O)[O-],,25,?C
O[As]([O-])([O-])=O,arsonic acid,11.12,Log unit,O[As](=O)([O-])[O-],,25,?C
OC1=CC=CC=CC1=O,"2-Hydroxy-2,4,6-cycloheptatrien-1-one",7,Log unit,Oc1c(=O)ccccc1,,25,?C
CS,METHANETHIOL,10.33,Log unit,SC,,25,?C
CCS,ethanethiol,10.555,Log unit,SCC,,25,?C
SCC[S-],"1,2-ETHANEDITHIOL",10.3,Log unit,SCC[S-],,25,?C
SCC([S-])CC=O,"2243 2,3-dimercapto-1-propanol",10.6,Log unit,SCC(CC=O)[S-],,25,?C
[O-]S(=O)(=O)CC([S-])CS,"2,3-dimercapto-1-propansulfonic acid",11.2,Log unit,SCC(CS(=O)(=O)[O-])[S-],,25,?C
OCCS,2-mercaptoethanol,9.4,Log unit,SCCO,,25,?C
[O-]S(=O)(=O)CCS,2-Mercaptoethanesulfonic acid,9.08,Log unit,SCCS(=O)(=O)[O-],,25,?C
CCOCCS,ethoxyethanthiol,9.35,Log unit,SCCOCC,,25,?C
CC(S)C=O,2-mercapto-2-methyl-1-propanol,9.35,Log unit,SC(C)C=O,,25,?C
CCCCCCS,Hexanethiol,10.3,Log unit,SCCCCCC,,25,?C
SC1=CC=CC=C1,Benzenethiol,6.62,Log unit,Sc1ccccc1,,25,?C
CC1=C(S)C=CC=C1,2-methyl-Benzenethiol,6.64,Log unit,Sc1c(C)cccc1,,25,?C
CC1=CC=CC(S)=C1,3-methyl-Benzenethiol,6.66,Log unit,Sc1cc(C)ccc1,,25,?C
CC1=CC=C(S)C=C1,4-Methyl-benzenethiol,6.82,Log unit,Sc1ccc(C)cc1,,25,?C
SC1=CC(Cl)=CC=C1,3-Chloro-benzenethiol,5.78,Log unit,Sc1cc(Cl)ccc1,,25,?C
SC1=CC=C(Cl)C=C1,4-chloro-Benzenethiol,5.9,Log unit,Sc1ccc(Cl)cc1,,25,?C
SC1=CC=C(Br)C=C1,4-Bromo-benzenethiol,6.02,Log unit,Sc1ccc(Br)cc1,,25,?C
SCC1=CC=CC=C1,methanthiolphenyl,9.43,Log unit,SCc1ccccc1,,25,?C
[O-]C(=O)C1=C(S)C=CC=C1,2-MERCAPTOBENZOIC ACID,8.6,Log unit,Sc1c(C(=O)[O-])cccc1,,25,?C
[O-]C(=O)C1=CC(S)=CC=C1,3-Mercaptobenzoic acid,6.3,Log unit,Sc1cc(C(=O)[O-])ccc1,,25,?C
[O-]C(=O)C1=CC=C(S)C=C1,4-Mercaptobenzoic acid,5.8,Log unit,Sc1ccc(C(=O)[O-])cc1,,25,?C
COC1=CC=CC(S)=C1,3-methoxy-Benzenethiol,6.4,Log unit,Sc1cc(OC)ccc1,,25,?C
COC1=CC=C(S)C=C1,4-methoxy-Benzenethiol,6.8,Log unit,Sc1ccc(OC)cc1,,25,?C
SC1=CC(=CC=C1)N(=O)=O,3-nitro-Benzenethiol,5.24,Log unit,Sc1cc(N(=O)=O)ccc1,,25,?C
SC1=CC=C(C=C1)N(=O)=O,4-Nitro-benzenethiol,4.7,Log unit,Sc1ccc(N(=O)=O)cc1,,25,?C
SC1=CC=CC=CC1=O,"2-mecapto-2,4,6-Cycloheptatrien-1-one",5.9,Log unit,Sc1c(=O)ccccc1,,25,?C
OOS(O)(=O)=O,Peroxymonosulphuric acid,0.7,Log unit,OS(=O)(=O)OO,,25,?C
OS(O)(=O)=O,Sulphuric acid,1.9,Log unit,OS(=O)(=O)O,,25,?C
CC(N)S(O)(=O)=O,1-aminoethylsulfonic acid,-0.33,Log unit,OS(=O)(=O)C(N)C,,25,?C
[NH3+]S(O)(=O)=O,Sulphamic acid,1,Log unit,OS(=O)(=O)[NH3+],,25,?C
OS(=O)(=O)C1=CC=CC2=C1C=CC=C2,alphanaphthylsulfonic acid,0.68,Log unit,OS(=O)(=O)c1cccc2c1cccc2,,25,?C
OS(=O)(=O)C1=CC=CC2=C1C(=O)C1=CC=CC=C1C2=O,ANTHRAQUINONE-1-SULFONIC ACID,0.27,Log unit,OS(=O)(=O)c1cccc2c1C(=O)c1ccccc1C2=O,,25,?C
OS(=O)(=O)C1=CC=C2C(=O)C3=CC=CC=C3C(=O)C2=C1,Anthraquinone-2-sulfonic acid,0.38,Log unit,OS(=O)(=O)c1ccc2C(=O)c3ccccc3C(=O)c2c1,,25,?C
OP(O)(O)=O,Phosphonic acid,2.12,Log unit,OP(=O)(O)O,,25,?C
OP(O)([O-])=O,Phosphonic acid,7.21,Log unit,OP(=O)([O-])O,,25,?C
OP([O-])([O-])=O,Phosphonic acid,12.67,Log unit,OP(=O)([O-])[O-],,25,?C
NP(O)(O)=O,Amidophosphoric acid,3,Log unit,OP(=O)(N)O,,25,?C
NP(O)([O-])=O,Amidophosphoric acid,8.15,Log unit,OP(=O)(N)[O-],,25,?C
COP(O)(O)=O,Methyl dihydrogen phosphate,1.53,Log unit,OP(=O)(O)OC,,25,?C
COP(O)([O-])=O,Methyl dihydrogen phosphate,6.5,Log unit,OP(=O)([O-])OC,,25,?C
OP(O)(=O)CP(O)(O)=O,Methylenediphosphonic acid,2,Log unit,OP(=O)(O)CP(=O)(O)O,,25,?C
OP(O)(=O)CP(O)([O-])=O,Methylenediphosphonic acid,2.3,Log unit,OP(=O)([O-])CP(=O)(O)O,,25,?C
OP([O-])(=O)CP(O)([O-])=O,Methylenediphosphonic acid,7.4,Log unit,OP(=O)([O-])CP(=O)(O)[O-],,25,?C
OP(=O)C(F)(F)F,trifluoromethylsulphonous acid,1.01,Log unit,OP(=O)C(F)(F)F,,25,?C
CC(=O)OP(O)(O)=O,acetyldihydrogenphosphate,1.2,Log unit,OP(=O)(O)OC(=O)C,,25,?C
CP(C)(O)=O,Dimethylphosphinic acid,3.13,Log unit,OP(=O)(C)C,,25,?C
OCC(CO)OP(O)(O)=O,glycerin-2-phosphoricester,1.262,Log unit,OP(=O)(O)OC(CO)CO,,25,?C
OCC(CO)OP(O)([O-])=O,glycerin-2-phosphoricester,6.6,Log unit,OP(=O)([O-])OC(CO)CO,,25,?C
OCC1OC(OP(O)(O)=O)C(O)C(O)C1O,galactose-1-phosphoric acid,1,Log unit,OP(=O)(O)OC1OC(C(O)C(C1O)O)CO,,25,?C
OCC1OC(OP(O)([O-])=O)C(O)C(O)C1O,galactose-1-phosphoric acid,6.2,Log unit,OP(=O)([O-])OC1OC(C(O)C(C1O)O)CO,,25,?C
NCCOP(O)([O-])=O,ethylamino-1-phosphoric acid,5.8,Log unit,OP(=O)(OCCN)[O-],,25,?C
CP(O)(O)=O,methyl-phosphoric acid,2.365,Log unit,OP(=O)(O)C,,25,?C
CP(O)([O-])=O,methyl-phosphoric acid,7.5,Log unit,OP(=O)([O-])C,,25,?C
CCP(O)(O)=O,Ethylphosphonic acid,2.45,Log unit,OP(=O)(O)CC,,25,?C
CCP(O)([O-])=O,Ethylphosphonic acid,7.9,Log unit,OP(=O)([O-])CC,,25,?C
CCCP(O)(O)=O,n-propylphosphonic acid,2.49,Log unit,OP(=O)(O)CCC,,25,?C
CCCP(O)([O-])=O,n-propylphosphonic acid,8.18,Log unit,OP(=O)([O-])CCC,,25,?C
CC(C)P(O)(O)=O,iso-propylphosphoric acid,2.66,Log unit,OP(=O)(O)C(C)C,,25,?C
CC(C)P(O)([O-])=O,iso-propylphosphoric acid,8.44,Log unit,OP(=O)([O-])C(C)C,,25,?C
CCCCP(O)(O)=O,n-butyl-1-phosphonic acid,2.59,Log unit,OP(=O)(O)CCCC,,25,?C
CCCCP(O)([O-])=O,n-butyl-1-phosphonic acid,8.19,Log unit,OP(=O)([O-])CCCC,,25,?C
CCC(C)P(O)(O)=O,n-butyl-2-phosphonic acid,2.74,Log unit,OP(=O)(O)C(C)CC,,25,?C
CCC(C)P(O)([O-])=O,n-butyl-2-phosphonic acid,8.48,Log unit,OP(=O)([O-])C(C)CC,,25,?C
CC(C)CP(O)(O)=O,iso-butylphosphonic acid,2.7,Log unit,OP(=O)(O)CC(C)C,,25,?C
CC(C)CP(O)([O-])=O,iso-butylphosphonic acid,8.43,Log unit,OP(=O)([O-])CC(C)C,,25,?C
CC(C)(C)P(O)(O)=O,tert.-butylphosphonic acid,2.79,Log unit,OP(=O)(O)C(C)(C)C,,25,?C
CC(C)(C)P(O)([O-])=O,tert.-butylphosphonic acid,8.88,Log unit,OP(=O)([O-])C(C)(C)C,,25,?C
CC(C)(C)CP(O)(O)=O,neopentylphosphonic acid,2.84,Log unit,OP(=O)(O)CC(C)(C)C,,25,?C
CC(C)(C)CP(O)([O-])=O,neopentylphosphonic acid,8.65,Log unit,OP(=O)([O-])CC(C)(C)C,,25,?C
CCC(C)(C)P(O)(O)=O,tert.-amylphosphonic acid,2.88,Log unit,OP(=O)(O)C(C)(C)CC,,25,?C
CCC(C)(C)P(O)([O-])=O,tert.-amylphosphonic acid,8.96,Log unit,OP(=O)([O-])C(C)(C)CC,,25,?C
CCCCCCP(O)(O)=O,n-hexylphosphonic acid,2.5,Log unit,OP(=O)(O)CCCCCC,,25,?C
CCCCCCP(O)([O-])=O,n-hexylphosphonic acid,7.9,Log unit,OP(=O)([O-])CCCCCC,,25,?C
CCCCCCP(O)([O-])=O,n-docdecylphosphonic acid,8.25,Log unit,OP(=O)([O-])CCCCCC,,25,?C
OP(O)(=O)CCl,monochloromethylphosphonic acid,1.4,Log unit,OP(=O)(CCl)O,,25,?C
OP([O-])(=O)CCl,monochloromethylphosphonic acid,6.3,Log unit,OP(=O)(CCl)[O-],,25,?C
OP(O)(=O)C(Cl)Cl,dichloromethylphosphonic acid,1.14,Log unit,OP(=O)(C(Cl)Cl)O,,25,?C
OP([O-])(=O)C(Cl)Cl,dichloromethylphosphonic acid,5.61,Log unit,OP(=O)(C(Cl)Cl)[O-],,25,?C
OP(O)(=O)CBr,monobromomethylphosphonic acid,1.14,Log unit,OP(=O)(CBr)O,,25,?C
OP([O-])(=O)CBr,monobromomethylphosphonic acid,6.52,Log unit,OP(=O)(CBr)[O-],,25,?C
OP(O)(=O)CI,monoiodomethylphosphonic acid,1.3,Log unit,OP(=O)(CI)O,,25,?C
OP([O-])(=O)CI,monoiodomethylphosphonic acid,6.72,Log unit,OP(=O)(CI)[O-],,25,?C
OCP(O)(O)=O,Hydroxymethylphosphonic acid,1.91,Log unit,OP(=O)(O)CO,,25,?C
OCP(O)([O-])=O,Hydroxymethylphosphonic acid,7.15,Log unit,OP(=O)([O-])CO,,25,?C
[NH3+]CP(O)(O)=O,AMINOMETHYLPHOSPHONIC ACID,1.85,Log unit,OP(=O)(O)C[NH3+],,25,?C
[NH3+]CP(O)([O-])=O,AMINOMETHYLPHOSPHONIC ACID,5.35,Log unit,OP(=O)([O-])C[NH3+],,25,?C
NCP([O-])([O-])=O,AMINOMETHYLPHOSPHONIC ACID,10.8,Log unit,NCP(=O)([O-])[O-],,25,?C
[NH3+]CCP(O)(O)=O,2-aminoethylphosphonic acid,2.45,Log unit,OP(=O)(O)CC[NH3+],,25,?C
[NH3+]CCP(O)([O-])=O,2-aminoethylphosphonic acid,7,Log unit,OP(=O)([O-])CC[NH3+],,25,?C
NCCP([O-])([O-])=O,2-aminoethylphosphonic acid,10.8,Log unit,NCCP(=O)([O-])[O-],,25,?C
[NH3+]CCCCP(O)(O)=O,4-amino-n-butylphosphonic acid,2.55,Log unit,OP(=O)(O)CCCC[NH3+],,25,?C
[NH3+]CCCCP(O)([O-])=O,4-amino-n-butylphosphonic acid,7.55,Log unit,OP(=O)([O-])CCCC[NH3+],,25,?C
NCCCCP(O)([O-])=O,4-amino-n-butylphosphonic acid,10.9,Log unit,NCCCCP(=O)(O)[O-],,25,?C
[NH3+]CCCCCP(O)(O)=O,5-amino-n-pentylphosphonic acid,2.6,Log unit,OP(=O)(O)CCCCC[NH3+],,25,?C
[NH3+]CCCCCP(O)([O-])=O,5-amino-n-pentylphosphonic acid,7.6,Log unit,OP(=O)([O-])CCCCC[NH3+],,25,?C
NCCCCCP([O-])([O-])=O,5-amino-n-pentylphosphonic acid,11,Log unit,NCCCCCP(=O)([O-])[O-],,25,?C
[NH3+]CCCCCCCCCCP(O)([O-])=O,10-amino-n-decyllphosphonic acid,8,Log unit,OP(=O)([O-])CCCCCCCCCC[NH3+],,25,?C
NCCCCCCCCCCP([O-])([O-])=O,5-amino-n-decylphosphonic acid,11.25,Log unit,NCCCCCCCCCCP(=O)([O-])[O-],,25,?C
OP([O-])(=O)CCCNC1=CC=CC=C1,3-phenylamino-n-propyl-phosphonic acid,4.25,Log unit,N(c1ccccc1)CCCP(=O)(O)[O-],,25,?C
CC1=CC(=C(C)C=C1O)C(C)(C)C,"4-butyl-2,5-dimethyl-phenol",10.74,Log unit,Oc1cc(C)c(C(C)(C)C)cc1C,,25,?C
CC1=CC(C)=C(O)C(=C1)C(C)(C)C,"2-tert-butyl-4,6-dimethyl-phenol",12.04,Log unit,Oc1c(cc(C)cc1C(C)(C)C)C,,25,?C
CC(C)C1=CC=CC(C(C)C)=C1O,"2,6-diisopropyl-phenol",11.1,Log unit,Oc1c(cccc1C(C)C)C(C)C,,25,?C
CCCC1=CC=C(O)C(CCC)=C1,"2,4-dipropyl-phenol",10.91,Log unit,Oc1ccc(CCC)cc1CCC,,25,?C
CCCC1=CC=CC(CCC)=C1O,"2,6-Dipropyl-phenol",11.25,Log unit,Oc1c(cccc1CCC)CCC,,25,?C
CCC1=C(C)C(=CC=C1O)C(C)C,2-ethyl-4-isopropyl-3-methyl phenol,10.85,Log unit,Oc1ccc(C(C)C)c(c1CC)C,,25,?C
CCC1=C(C)C=C(O)C(=C1)C(C)C,4-ethyl-2-isopropyl-5-methyl-phenol,10.91,Log unit,Oc1cc(c(CC)cc1C(C)C)C,,25,?C
CCCCCCC1=CC=CC=C1O,2-hexyl-phenol,10.66,Log unit,Oc1ccccc1CCCCCC,,25,?C
OC1=C(C=C(C=C1C1=CC=CC=C1)N(=O)=O)N(=O)=O,"3,5-dinitro-biphenyl-2-ol",3.848,Log unit,Oc1c(c2ccccc2)cc(cc1N(=O)=O)N(=O)=O,,25,?C
OC1=CC=CC=C1C1=CC=C(Br)C=C1,4'-bromo-biphenyl-2-ol,10.96,Log unit,Oc1c(c2ccc(Br)cc2)cccc1,,25,?C
OC1=CC=CC=C1C1=CC=C(I)C=C1,4'-iodo-biphenyl-2-ol,10.92,Log unit,Oc1c(c2ccc(I)cc2)cccc1,,25,?C
OC1=CC=CC=C1C1=CC=C(C=C1)N(=O)=O,4'-nitro-biphenyl-2-ol,10.42,Log unit,Oc1ccccc1c1ccc(N(=O)=O)cc1,,25,?C
OC1=C(C=C(C=C1)C1=CC=CC=C1)N(=O)=O,3-nitro-biphenyl-4-ol,6.73,Log unit,Oc1c(cc(c2ccccc2)cc1)N(=O)=O,,25,?C
OC1=C(C=CC(=C1)C1=CC=CC=C1)N(=O)=O,3-nitro-biphenyl-4-ol,6.73,Log unit,Oc1cc(c2ccccc2)ccc1N(=O)=O,,25,?C
NC1=CC=C(C=C1)C1=CC=CC=C1O,4'-amino-biphenyl-2-ol,11.4,Log unit,Oc1ccccc1c1ccc(N)cc1,,25,?C
CC(=O)NC1=CC(O)=CC2=C1C=CC=C2,N-(3-hydroxy-1-napthyl)-acetamid,9.3,Log unit,Oc1cc(NC(=O)C)c2ccccc2c1,,25,?C
CC(=O)NC1=CC2=C(C=CC=C2)C(O)=C1,N-(4-hydroxy-2-napthyl)-acetamid,8.87,Log unit,Oc1cc(cc2ccccc12)NC(=O)C,,25,?C
COC1=CC=CC=C1C1=CC=CC=C1O,2'-methoxy-biphenyl-2-ol,10.4,Log unit,Oc1ccccc1c1ccccc1OC,,25,?C
COC1=CC=C(C=C1)C1=CC=CC=C1O,4'-methoxy-biphenyl-2-ol,11.38,Log unit,Oc1ccccc1c1ccc(OC)cc1,,25,?C
OC1=CC=CC=C1CC1=CC=CC=C1[O-],2-(2-hydroxybenzyl)-phenol,11.3,Log unit,Oc1ccccc1Cc1ccccc1[O-],,25,?C
OC1=CC=C(CC2=CC=CC=C2[O-])C=C1,2-(4-hydroxybenzyl)-phenol,10.6,Log unit,Oc1ccc(Cc2ccccc2[O-])cc1,,25,?C
CC(=O)C1=CC(=CC=C1)C1=CC=CC=C1O,3'-acetyl-biphenyl-2-ol,10.91,Log unit,Oc1ccccc1c1cccc(c1)C(=O)C,,25,?C
CC(=O)C1=CC=C(C=C1)C1=CC=CC=C1O,4'-acetyl-biphenyl-2-ol,10.78,Log unit,Oc1ccccc1c1ccc(C(=O)C)cc1,,25,?C
CCOC1=CC=C(C=C1)C1=CC=CC=C1O,4'-ethoxy-biphenyl-2-ol,11.39,Log unit,Oc1ccccc1c1ccc(OCC)cc1,,25,?C
CC(C)(C)C1=CC=C(O)C(=C1)C(C)(C)C,"2,4-Di-tert-butyl-phenol",11.64,Log unit,Oc1ccc(C(C)(C)C)cc1C(C)(C)C,,25,?C
CC(C)(C)C1=CC=CC(=C1O)C(C)(C)C,"2,6-Di-tert-butyl-phenol",11.7,Log unit,Oc1c(cccc1C(C)(C)C)C(C)(C)C,,25,?C
CC(C)(C)C1=CC(=CC(O)=C1)C(C)(C)C,"3,5-Di-tert-butyl-phenol",10.29,Log unit,Oc1cc(cc(c1)C(C)(C)C)C(C)(C)C,,25,?C