Smiles,Name,pKa,pKa Unit,Ionizable center smiles,IC group,Temperature,Temperature Unit
OC(=O)C1CCCCC1C1CCCCC1C(O)=O,perhydrodiphenic acid,5.2,Log unit,OC(=O)C1C(C2C(C(=O)O)CCCC2)CCCC1,1,25,?C
CC1(C)C(CCC1C(O)=O)C(O)=O,"cyclobutan-1,3-dicarboxlic acid-2,2-dimethyl",4.88,Log unit,OC(=O)C1C(C(C(=O)O)CC1)(C)C,co2h,25,?C
CC1(C)C(CCC1(C)C(O)=O)C(O)=O,"cyclopentan-1,3-dicarboxlic acid-1,2,2-trimethyl",5.01,Log unit,OC(=O)C1C(C(C(=O)O)(C)CC1)(C)C,co2h,25,?C
CC1(C)C(CCC1(C)C(O)=O)C([O-])=O,"cyclopentan-1,3-dicarboxlic acid-1,2,2-trimethyl",5.53,Log unit,[O-]C(=O)C1C(C(C(=O)O)(C)CC1)(C)C,co2h,25,?C
OC(=O)CC1C2CC(C3C4CCC(C4)C23)C1C(O)=O,alpha-trans-C15H20O4-dicarboxylic acid,4.55,Log unit,OC(=O)CC1C2C3C4CC(CC4)C3C(C2)C1C(=O)O,co2h,25,?C
OC(=O)C1CCCC(C1C(O)=O)C(O)=O,"1,2,3-cyclohexane-tricarboxylic acid",4.36,Log unit,OC(=O)C1C(C(=O)O)CCCC1C(=O)O,1,25,?C
OC(=O)C(Cl)C(Cl)C([O-])=O,"rac.-alpha,alpha'-dichlorosuccinic acid",2.8,Log unit,[O-]C(=O)C(Cl)C(Cl)C(=O)O,co2h,25,?C
OC(=O)C(Cl)C(Br)C(O)=O,threo-alpha-chloro-alpha'-bromo-succinic acid,1.76,Log unit,OC(=O)C(C(Br)C(=O)O)Cl,co2h,25,?C
OC(=O)C(Br)C(Br)C([O-])=O,"rac.-alpha,alpha'-dibromo-succinic acid",2.67,Log unit,[O-]C(=O)C(C(Br)C(=O)O)Br,co2h,25,?C
OC(CC(O)=O)C(O)=O,malic acid,3.5,Log unit,OC(=O)C(CC(=O)O)O,2,25,?C
OC(=O)CC(CC(O)=O)OC(O)=O,citric acid,2.9,Log unit,OC(=O)CC(OC(=O)O)CC(=O)O,co2h,25,?C
[NH2+]CC(O)=O,"glycine, amino-acetic acid",2.328,Log unit,OC(=O)C[NH2+],co2h,25,?C
OCC[N+](CCO)CC(O)=O,"N,N-di(beta-hydroxyethyl)-glycine",1.99,Log unit,OC(=O)C[N+](CCO)CCO,co2h,25,?C
CC([NH2+])C(O)=O,DL-Alanine,2.3245,Log unit,OC(=O)C([NH2+])C,co2h,25,?C
[NH2+]CCC(O)=O,beta-amino-propionic acid,3.58,Log unit,OC(=O)CC[NH2+],co2h,25,?C
CCC([NH2+])C(O)=O,DL-alpha-Amino-n-butyric acid,2.287,Log unit,OC(=O)C([NH2+])CC,co2h,25,?C
[NH2+]CCCC(O)=O,gamma-amino-n-butyric acid,4.02815,Log unit,OC(=O)CCC[NH2+],co2h,25,?C
CC(C)([NH2+])C(O)=O,alpha-amino-iso-butyric acid,2.3685,Log unit,OC(=O)C([NH2+])(C)C,co2h,25,?C
CCCC([NH2+])C(O)=O,dl-alpha-amino-n-valeric acid,2.3135,Log unit,OC(=O)C([NH2+])CCC,co2h,25,?C
CCC([NH2+])CC(O)=O,beta-amino-n-valeric acid,4.02,Log unit,OC(=O)CC([NH2+])CC,co2h,25,?C
[NH2+]CCCCC(O)=O,delta-Amino-n-valeric acid,4.235,Log unit,OC(=O)CCCC[NH2+],co2h,25,?C
CC(C)C([NH2+])C(O)=O,DL-Valine,2.292,Log unit,OC(=O)C([NH2+])C(C)C,co2h,25,?C
CCCCC([NH2+])C(O)=O,DL-Norleucine,2.3295,Log unit,OC(=O)C([NH2+])CCCC,co2h,25,?C
[NH2+]CCCCCC(O)=O,epsilon-amino-n-capronic acid,4.43,Log unit,OC(=O)CCCCC[NH2+],co2h,25,?C
CC(C)CC([NH2+])C(O)=O,DL-Leucine,2.3275,Log unit,OC(=O)C([NH2+])CC(C)C,co2h,25,?C
CCC(C)C([NH2+])C(O)=O,DL-Isoleucine,2.325,Log unit,OC(=O)C([NH2+])C(C)CC,co2h,25,?C
[NH2+]CCCCCCCCCCCC(O)=O,omega-amino-n-dodecanic acid,4.648,Log unit,OC(=O)CCCCCCCCCCC[NH2+],co2h,25,?C
[NH2+]C1(CCCCC1)C(O)=O,"1,1-amino-cyclohexane-carboxylic acid",2.66,Log unit,OC(=O)C1(CCCCC1)[NH2+],co2h,25,?C
[NH2+]C1CCCCC1C(O)=O,"1,2-amino-cyclohexane-carboxylic acid",3.59,Log unit,OC(=O)C1C([NH2+])CCCC1,co2h,25,?C
[NH2+]C1CCC(CC1)C(O)=O,"1,4-amino-cyclohexane-carboxylic acid",4.3,Log unit,OC(=O)C1CCC([NH2+])CC1,co2h,25,?C
[NH2+]CCCC([NH2+])C(O)=O,ornithine,1.94,Log unit,OC(=O)C([NH2+])CCC[NH2+],co2h,25,?C
NC(CCC[NH2+])C([O-])=O,ornithine,8.65,Log unit,NC(C(=O)[O-])CCC[NH2+],nr2,25,?C
NCCCC(N)C([O-])=O,ornithine,10.76,Log unit,NCCCC(C(=O)[O-])N,4,25,?C
NC(=[NH2+])NCCCC([NH2+])C(O)=O,ARGININE,2.06,Log unit,OC(=O)C([NH2+])CCCNC(=[NH2+])N,co2h,25,?C
NC(CCCNC(N)=[NH2+])C([O-])=O,ARGININE,9.1,Log unit,NC(C(=O)[O-])CCCNC(=[NH2+])N,4,25,?C
NC(CCCNC(N)=N)C([O-])=O,ARGININE,13.2,Log unit,N=C(NCCCC(C(=O)[O-])N)N,neth,25,?C
[NH2+]C(CC1=CNC=[N+]1)C(O)=O,histidine,1.8,Log unit,OC(=O)C(Cc1[n+]c[nH]c1)[NH2+],co2h,25,?C
[NH2+]C(CC1=CNC=N1)C([O-])=O,histidine,6,Log unit,n1c[nH]cc1CC([NH2+])C(=O)[O-],nethR,25,?C
NC(CC1=CNC=N1)C([O-])=O,histidine,9,Log unit,NC(Cc1nc[nH]c1)C(=O)[O-],4,25,?C
NC(=O)NCCCC([NH2+])C(O)=O,L-citrulline,2.43,Log unit,OC(=O)C(CCCNC(=O)N)[NH2+],co2h,25,?C
NC(CCCNC(N)=O)C([O-])=O,L-citrulline,9.4,Log unit,NC(CCCNC(=O)N)C(=O)[O-],6,25,?C
[NH2+]CCCCC([NH2+])C(O)=O,lysine,2.17,Log unit,OC(=O)C([NH2+])CCCC[NH2+],co2h,25,?C
NC(CCCC[NH2+])C([O-])=O,lysine,9,Log unit,NC(C(=O)[O-])CCCC[NH2+],2,25,?C
NCCCCC(N)C([O-])=O,lysine,10.53,Log unit,NCCCCC(C(=O)[O-])N,4,25,?C
[NH2+]C(CC(O)=O)C(O)=O,ASPARTIC ACID,2.01,Log unit,OC(=O)C(CC(=O)O)[NH2+],2,25,?C
[NH2+]C(CC(O)=O)C([O-])=O,ASPARTIC ACID,3.9,Log unit,[O-]C(=O)C(CC(=O)O)[NH2+],co2h,25,?C
[NH2+]C(CC(O)=O)C([O-])=O,ASPARTIC ACID,3.8,Log unit,[O-]C(=O)C(CC(=O)O)[NH2+],co2h,25,?C
NC(CC(N)=O)C([O-])=O,asparagine,8.82,Log unit,NC(CC(=O)N)C(=O)[O-],4,25,?C
[NH2+]C(CCC(O)=O)C(O)=O,Glutamic acid,2.155,Log unit,OC(=O)C(CCC(=O)O)[NH2+],2,25,?C
CCOC(=O)C([NH2+])CCC(O)=O,glutamic acid-alpha-ethyl half ester,3.846,Log unit,OC(=O)CCC([NH2+])C(=O)OCC,co2h,25,?C
CCOC(=O)CCC([NH2+])C(O)=O,glutamic acid-gamma-ethyl half ester,2.148,Log unit,OC(=O)C([NH2+])CCC(=O)OCC,co2h,25,?C
C[N+](CC(O)=O)CC(O)=O,methylaminediacetic acid,2.15,Log unit,OC(=O)C[N+](C)CC(=O)O,1,25,?C
OC(=O)C[N+](CC(O)=O)C1=CC=CC=C1,anilinediacetic acid,2.7,Log unit,OC(=O)C[N+](c1ccccc1)CC(=O)O,co2h,25,?C
[O-]C(=O)CN(CC([O-])=O)C1=CC=CC=C1,anilinediacetic acid,5,Log unit,[O-]C(=O)CN(c1ccccc1)CC(=O)[O-],nr2,25,?C
OC(=O)C[N+](CC(O)=O)CC(O)=O,nitriloacetic acid,1.3,Log unit,OC(=O)C[N+](CC(=O)O)CC(=O)O,co2h,25,?C
OC(=O)C[N+](CC(O)=O)CC([O-])=O,nitriloacetic acid,1.7,Log unit,[O-]C(=O)C[N+](CC(=O)O)CC(=O)O,co2h,25,?C
OC(=O)C[N+](CC([O-])=O)CC([O-])=O,nitriloacetic acid,2.4,Log unit,OC(=O)C[N+](CC(=O)[O-])CC(=O)[O-],co2h,25,?C
C[N+](C)CCN(CC([O-])=O)CC([O-])=O,ethylenediamine-N-dimethyl-N'-diacetic acid,5.9,Log unit,N(CC(=O)[O-])(CC(=O)[O-])CC[N+](C)C,nr2,25,?C
CN(C)CCN(CC([O-])=O)CC([O-])=O,ethylenediamine-N-dimethyl-N'-diacetic acid,10,Log unit,N(CCN(CC(=O)[O-])CC(=O)[O-])(C)C,2,25,?C
OC(=O)CC[N+](CC[N+](CCC(O)=O)CC([O-])=O)CC([O-])=O,"ethylenediamine-N,N'-dipropionic acid-N,N'-diacetic acid",3.3,Log unit,OC(=O)CC[N+](CC(=O)[O-])CC[N+](CC(=O)[O-])CCC(=O)O,co2h,25,?C
OC(=O)CC[N+](CC[N+](CCC([O-])=O)CC([O-])=O)CC([O-])=O,"ethylenediamine-N,N'-dipropionic acid-N,N'-diacetic acid",3.5,Log unit,[O-]C(=O)CC[N+](CC(=O)[O-])CC[N+](CC(=O)[O-])CCC(=O)O,co2h,25,?C
[O-]C(=O)CCN(CC[N+](CCC([O-])=O)CC([O-])=O)CC([O-])=O,"ethylenediamine-N,N'-dipropionic acid-N,N'-diacetic acid",6.3,Log unit,N(CC(=O)[O-])(CCC(=O)[O-])CC[N+](CC(=O)[O-])CCC(=O)[O-],nr2,25,?C
OC(=O)CC(=O)C(O)=O,oxaloacetic acid,2.55,Log unit,OC(=O)C(=O)CC(=O)O,2,25,?C
[NH2+]C(CS([O-])(=O)=O)C(O)=O,Cysteic Acid,1.89,Log unit,OC(=O)C(CS(=O)(=O)[O-])[NH2+],co2h,25,?C
OC(C(Cl)C(O)=O)C(O)=O,alpha-hydroxy-alpha'-chlorobutyric acid,2.32,Log unit,OC(=O)C(C(Cl)C(=O)O)O,co2h,25,?C
CC(SCC(O)=O)C(O)=O,alpha-thiopropionic acid-acetic acid,3.38,Log unit,OC(=O)C(SCC(=O)O)C,co2h,25,?C
[NH2+]CCSCCCCCCCCCC(O)=O,10-(aminoethylthio)-n-decanoic acid,4,Log unit,OC(=O)CCCCCCCCCSCC[NH2+],co2h,25,?C
[NH2+]C(CCCC(F)(F)F)C(O)=O,"epsilon,epsilon,epsilon-trifluoro-norleucine",2.164,Log unit,OC(=O)C(CCCC(F)(F)F)[NH2+],co2h,25,?C
CC(CC([NH2+])C(O)=O)C(F)(F)F,"delta,delta,delta-trifluoro-leucine",2.045,Log unit,OC(=O)C(CC(C(F)(F)F)C)[NH2+],co2h,25,?C
[NH2+]C(CCC(F)(F)F)C(O)=O,"delta,delta,delta-trifluoro-norvaline",2.042,Log unit,OC(=O)C(CCC(F)(F)F)[NH2+],co2h,25,?C
CC(C([NH2+])C(O)=O)C(F)(F)F,"gamma,gamma,gamma-trifluoro-valine",1.537,Log unit,OC(=O)C(C(C(F)(F)F)C)[NH2+],co2h,25,?C
[NH2+]C(CC(F)(F)F)C(O)=O,"gamma,gamma,gamma-trifluoro-alpha-amino-n-butyric acid",1.6,Log unit,OC(=O)C(CC(F)(F)F)[NH2+],co2h,25,?C
[NH2+]C(C(O)C(F)(F)F)C(O)=O,"gamma,gamma,gamma-trifluoro-threonine",1.554,Log unit,OC(=O)C(C(C(F)(F)F)O)[NH2+],co2h,25,?C
[NH2+]C(CO)C(O)=O,SERINE,2.21,Log unit,OC(=O)C([NH2+])CO,co2h,25,?C
[NH2+]C(C(O)CC(O)=O)C(O)=O,beta-hydroxy-glutamic acid,2.32,Log unit,OC(=O)C(C(CC(=O)O)O)[NH2+],2,25,?C
[NH2+]C(C(O)CC(O)=O)C([O-])=O,beta-hydroxy-glutamic acid,4.2,Log unit,OC(=O)CC(O)C([NH2+])C(=O)[O-],co2h,25,?C
NC(=[NH2+])NOCCC([NH2+])C(O)=O,Canavanine,2.5,Log unit,OC(=O)C([NH2+])CCONC(=[NH2+])N,co2h,25,?C
[NH2+]OCCC([NH2+])C(O)=O,canaline,2.4,Log unit,OC(=O)C([NH2+])CCO[NH2+],co2h,25,?C
NOCCC([NH2+])C([O-])=O,canaline,3.7,Log unit,[O-]C(=O)C([NH2+])CCON,nr2,25,?C
NOCCC(N)C([O-])=O,canaline,9.2,Log unit,NC(C(=O)[O-])CCON,3,25,?C
CCSCC([NH2+])C(O)=O,s-ethyl-cysteine,2.03,Log unit,OC(=O)C(CSCC)[NH2+],co2h,25,?C
OC(=O)C1=CC(C(O)=O)=C(C=C1)C(O)=O,"Benzene-1,2,4-tricarboxylic acid",2.82,Log unit,OC(=O)c1ccc(cc1C(=O)O)C(=O)O,co2h,25,?C
OC(=O)C1=CC(C([O-])=O)=C(C=C1)C(O)=O,"Benzene-1,2,4-tricarboxylic acid",3.84,Log unit,[O-]C(=O)c1c(ccc(c1)C(=O)O)C(=O)O,2,25,?C
OC1C(Cl)CCCC1[N+]([O-])=O,NSC28581 2-chloro-6-(hydroxy(oxido)amino)phenol,5.48,Log unit,OC1C([N+](=O)[O-])CCCC1Cl,,,-
CC1CC(C(O)C(C1)[N+]([O-])=O)[N+]([O-])=O,"NSC33870 2,6-bis(hydroxy(oxido)amino)-4-methylphenol",4.23,Log unit,OC1C([N+](=O)[O-])CC(CC1[N+](=O)[O-])C,,,-
OC1CCCCC1,NSC36808 phenol,9.99,Log unit,OC1CCCCC1,,,-
OC1C(CC(CC1[N+]([O-])=O)[N+]([O-])=O)[N+]([O-])=O,"NSC36947 2,4,6-tris(hydroxy(oxido)amino)phenol",0.38,Log unit,OC1C([N+](=O)[O-])CC(CC1[N+](=O)[O-])[N+](=O)[O-],,,-
CC1CC(C)C(O)CC1C,"NSC38776 2,4,5-trimethylphenol",10.6,Log unit,OC1CC(C(C)CC1C)C,,,-
CC1CCC(O)CC1[N+]([O-])=O,NSC41205 3-(hydroxy(oxido)amino)-4-methylphenol,8.62,Log unit,OC1CCC(C)C([N+](=O)[O-])C1,,,-
CC1CCC(O)C(Cl)C1,NSC48848 2-chloro-4-methylphenol,8.74,Log unit,OC1C(Cl)CC(CC1)C,,,-
OC1CCCCC1C#N,NSC53558 2-hydroxybenzonitrile,6.86,Log unit,OC1C(C#N)CCCC1,,,-
OC1CCCC(Cl)C1,NSC59700 3-chlorophenol,9.12,Log unit,OC1CC(Cl)CCC1,,,-
OC1CCC(C(C1)C(F)(F)F)[N+]([O-])=O,NSC59758 4-(hydroxy(oxido)amino)-3-(trifluoromethyl)phenol,6.07,Log unit,OC1CCC(C(C(F)(F)F)C1)[N+](=O)[O-],,,-
OC1CCCC(C1)C#N,NSC60108 3-hydroxybenzonitrile,8.61,Log unit,OC1CC(C#N)CCC1,,,-
CCCCC1CCCCC1O,NSC60291 2-butylphenol,10.6,Log unit,OC1C(CCCC)CCCC1,,,-
OC1CCCC(Cl)C1Cl,"NSC60646 2,3-dichlorophenol",7.7,Log unit,OC1CCCC(C1Cl)Cl,,,-
OC1C(Cl)CCCC1Cl,"NSC60647 2,6-dichlorophenol",6.79,Log unit,OC1C(Cl)CCCC1Cl,,,-
OC1CCC(Cl)C(Cl)C1,"NSC60648 3,4-dichlorophenol",8.63,Log unit,OC1CCC(C(Cl)C1)Cl,,,-
OC1CC(Cl)CC(Cl)C1,"NSC60649 3,5-dichlorophenol",8.18,Log unit,OC1CC(CC(Cl)C1)Cl,,,-
OCC1CCCC(O)C1,NSC60735 3-(hydroxymethyl)phenol,9.83,Log unit,OC1CC(CO)CCC1,,,-
CC1CCCC(O)C1C,"NSC62011 2,3-dimethylphenol",10.5,Log unit,OC1C(C)C(C)CCC1,,,-
CCC1CCC(O)CC1,NSC62012 4-ethylphenol,10,Log unit,OC1CCC(CC)CC1,,,-
OC1CCCCC1C(=O)NC1CCCCC1Cl,NSC63709 N-(2-chlorophenyl)-2-hydroxybenzamide,7.31,Log unit,OC1C(C(=O)NC2C(CCCC2)Cl)CCCC1,,,-
CCCC1CCCCC1O,NSC65646 2-propylphenol,10.5,Log unit,OC1C(CCC)CCCC1,,,-
CCCC1CCC(O)CC1,NSC65647 4-propylphenol,10.3,Log unit,OC1CCC(CCC)CC1,,,-
COC1CC(O)CC(C1)OC,"NSC70955 3,5-dimethoxyphenol",9.34,Log unit,OC1CC(CC(OC)C1)OC,,,-
OC1C(Cl)CC(Br)CC1Cl,"NSC74624 4-bromo-2,6-dichlorophenol",6.21,Log unit,OC1C(Cl)CC(CC1Cl)Br,,,-
CSC1CCC(O)CC1,NSC75840 4-(methylthio)phenol,9.53,Log unit,OC1CCC(SC)CC1,,,-
COC1CCC(CC1O)C=O,NSC82996 3-hydroxy-4-methoxybenzaldehyde,8.89,Log unit,OC1CC(C=O)CCC1OC,,,-
CC1CCC(O)C(CO)C1,NSC85475 2-(hydroxymethyl)-4-methylphenol,10.2,Log unit,OC1C(CO)CC(CC1)C,,,-
OC1CCCC(F)C1,NSC87078 3-fluorophenol,9.21,Log unit,OC1CC(F)CCC1,,,-
OC1CCC(CC1)C(F)(F)F,NSC88303 4-(trifluoromethyl)phenol,8.68,Log unit,OC1CCC(C(F)(F)F)CC1,,,-
OC1CC(CCC1[N+]([O-])=O)[N+]([O-])=O,"NSC90441 2,5-bis(hydroxy(oxido)amino)phenol",5.21,Log unit,OC1CC([N+](=O)[O-])CCC1[N+](=O)[O-],,,-
OC1CCC(CC1[N+]([O-])=O)C1CCCCC1,"NSC95810 3-(hydroxy(oxido)amino)[1,1'-biphenyl]-4-ol",6.73,Log unit,OC1CCC(CC1[N+](=O)[O-])C1CCCCC1,,,-
OC1CCCC(C1[N+]([O-])=O)[N+]([O-])=O,"NSC156083 2,3-bis(hydroxy(oxido)amino)phenol",4.96,Log unit,OC1CCCC(C1[N+](=O)[O-])[N+](=O)[O-],,,-
CCC(C)C1CC(CC(C1O)[N+]([O-])=O)[N+]([O-])=O,"NSC202753 2-sec-butyl-4,6-bis(hydroxy(oxido)amino)phenol",4.62,Log unit,OC1C(C(C)CC)CC(CC1[N+](=O)[O-])[N+](=O)[O-],,,-
OCC1CCC(O)CC1,NSC227926 4-(hydroxymethyl)phenol,9.82,Log unit,OC1CCC(CO)CC1,,,-
OC1CC(Cl)C(Cl)C(Cl)C1,"NSC243667 3,4,5-trichlorophenol",7.84,Log unit,OC1CC(C(Cl)C(C1)Cl)Cl,,,-
NCCC1CCC(O)CC1,NSC249188 4-(2-aminoethyl)phenol,9.77,Log unit,OC1CCC(CCN)CC1,,,-
OC1C(Cl)C(Cl)C(Cl)C(Cl)C1Cl,"NSC263497 2,3,4,5,6-pentachlorophenol",4.7,Log unit,OC1C(C(C(Cl)C(C1Cl)Cl)Cl)Cl,,,-
OC1CCC(CC1)C#N,NSC400524 4-hydroxybenzonitrile,7.97,Log unit,OC1CCC(CC1)C#N,,,-
OC1CCC(Cl)CC1C(=O)NC1CCCCC1,NSC402600 5-chloro-2-hydroxy-N-phenylbenzamide,6.17,Log unit,OC1C(C(=O)NC2CCCCC2)CC(Cl)CC1,,,-
CC1CC(Cl)C(O)C(Cl)C1,"NSC407750 2,6-dichloro-4-methylphenol",7.19,Log unit,OC1C(Cl)CC(C)CC1Cl,,,-
OC1C(Cl)C(Cl)CC(Cl)C1Cl,"NSC407823 2,3,5,6-tetrachlorophenol",5.14,Log unit,OC1C(Cl)C(Cl)CC(C1Cl)Cl,,,-
OC1CCC(Cl)CC1[N+]([O-])=O,NSC520345 4-chloro-2-(hydroxy(oxido)amino)phenol,6.46,Log unit,OC1C([N+](=O)[O-])CC(CC1)Cl,,,-
OC1CCCCC1C(=O)NC1CCC(Br)CC1,NSC526279 N-(4-bromophenyl)-2-hydroxybenzamide,7.31,Log unit,OC1C(C(=O)NC2CCC(CC2)Br)CCCC1,,,-
CCC(C)(C)C1CCC(O)CC1,NSC403672 4-tert-pentylphenol,10.4,Log unit,OC1CCC(C(CC)(C)C)CC1,,,-
CC(C)C1CC(Cl)C(C)CC1O,NSC406261 4-chloro-2-isopropyl-5-methylphenol,9.98,Log unit,OC1C(C(C)C)CC(Cl)C(C1)C,,,-
COC1CC(CCC1O)C=O,NSC403658 4-hydroxy-3-methoxybenzaldehyde,7.4,Log unit,OC1C(OC)CC(C=O)CC1,,,-
NCCC1=CC=C(O)C=C1,4-(2-Aminoethyl)phenol,9.77,Log unit,Oc1ccc(CCN)cc1,phenol,,-
CC1=C(Cl)C=CC(O)=C1,3-methyl-4-chlorophenol,9.2,Log unit,Oc1cc(c(Cl)cc1)C,phenol,25,?C
CCC(C)(C)C1=CC=C(O)C=C1,4-tert-Amylphenol,10.43,Log unit,Oc1ccc(cc1)C(CC)(C)C,phenol,,-
OC1=CC(=C(C=C1)[N+]([O-])=O)C(F)(F)F,3-Trifluoromethyl-4-nitrophenol,6.07,Log unit,Oc1cc(c([N+](=O)[O-])cc1)C(F)(F)F,phenol,,-
CC1=CC(O)=CC(C)=C1Cl,"4-CHLORO-3,5-DIMETHYL PHENOL",9.702,Log unit,Oc1cc(c(Cl)c(c1)C)C,phenol,25,?C
OC1=CC=C(C=C1)C1=CC=CC=C1,4-Phenylphenol,9.55,Log unit,Oc1ccc(cc1)c1ccccc1,phenol,,-
CCCCOC(=O)C1=CC=C(O)C=C1,4-HYDROXY BUTYL BENZOATE,8.47,Log unit,Oc1ccc(C(=O)OCCCC)cc1,phenol,,-
OC1=CC(Cl)=C(Cl)C=C1,"3,4-Dichlorophenol",8.63,Log unit,Oc1ccc(c(Cl)c1)Cl,phenol,,-
CC1=C(C)C=C(O)C=C1,"3,4-Dimethylphenol",10.36,Log unit,Oc1cc(c(cc1)C)C,phenol,25,?C
CC(C)(C)C1=CC=C(O)C=C1,4-T-BUTYLYPHENOL,10.39,Log unit,Oc1ccc(cc1)C(C)(C)C,phenol,25,?C
OC1=CC=CC(=C1)C(F)(F)F,3-Trifluoromethylphenol,8.95,Log unit,Oc1cc(C(F)(F)F)ccc1,phenol,25,?C
CC(=O)C1=CC=C(O)C=C1,4-hydroxyacetophenone,8.05,Log unit,Oc1ccc(cc1)C(=O)C,phenol,25,?C
CC(C)C1=CC=C(O)C=C1,4-isopropylphenol,10.24,Log unit,Oc1ccc(cc1)C(C)C,phenol,25,?C
OC1=CC(C=O)=CC=C1,3-hydroxybenzaldehyde,8.98,Log unit,Oc1cc(ccc1)C=O,phenol,25,?C
OC1=CC=C(C=C1)[N+]([O-])=O,4-nitrophenol,7.15,Log unit,Oc1ccc([N+](=O)[O-])cc1,phenol,25,?C
CC(=O)NC1=CC=C(O)C=C1,N-(4-HYDROXYPHENYL)ACETAMIDE,9.38,Log unit,Oc1ccc(NC(=O)C)cc1,phenol,,-
OC1=CC=C(Cl)C=C1,4-Chlorophenol,9.41,Log unit,Oc1ccc(Cl)cc1,phenol,26,?C
CC1=CC=C(O)C=C1,4-cresol,10.26,Log unit,Oc1ccc(cc1)C,phenol,25,?C
OC1=CC=C(Br)C=C1,4-bromophenol,9.17,Log unit,Oc1ccc(Br)cc1,phenol,25,?C
OC1=CC=CC=C1,Phenol,9.994,Log unit,Oc1ccccc1,phenol,25,?C
CC1=CC(O)=CC(C)=C1,"3,5-Dimethylphenol",10.19,Log unit,Oc1cc(cc(c1)C)C,phenol,25,?C
OC1=CC=CC(Cl)=C1,3-Chlorophenol,9.12,Log unit,Oc1cc(Cl)ccc1,phenol,,-
CC1=CC=CC(O)=C1,3-cresol,10.09,Log unit,Oc1cc(ccc1)C,phenol,25,?C
CCOC(=O)C1=CC=C(O)C=C1,"4-HYDROXYBENZOIC ACID,ETHYL ESTER",8.34,Log unit,Oc1ccc(C(=O)OCC)cc1,phenol,25,?C
CC(=O)C1=CC=CC(O)=C1,3-hydroxyacetophenone,9.25,Log unit,Oc1cc(ccc1)C(=O)C,phenol,25,?C
NC1=CC=C(O)C=C1,4-AMINO-PHENOL,10.45,Log unit,Oc1ccc(N)cc1,phenol,,-
OC1=CC=C(C=O)C=C1,4-hydroxybenzaldehyde,7.61,Log unit,Oc1ccc(cc1)C=O,phenol,25,?C
CCC1=CC=C(O)C=C1,4-Ethylphenol,10,Log unit,Oc1ccc(cc1)CC,phenol,25,?C
COC1=CC=C(O)C=C1,4-Methoxyphenol,10.1,Log unit,Oc1ccc(OC)cc1,phenol,25,?C
COC1=CC(O)=CC=C1,3-Methoxyphenol,9.65,Log unit,Oc1cc(OC)ccc1,phenol,25,?C
OC1=CC=C(F)C=C1,4-fluorophenol,9.91,Log unit,Oc1ccc(F)cc1,phenol,25,?C
OC1=CC=CC(F)=C1,3-fluorophenol,9.21,Log unit,Oc1cc(F)ccc1,phenol,25,?C
OC1=CC=C(C=C1)C(F)(F)F,4-Trifluoromethylphenol,8.675,Log unit,Oc1ccc(C(F)(F)F)cc1,phenol,25,?C
COC1=CC(OC)=CC(O)=C1,"3,5-Dimethoxyphenol",9.34,Log unit,Oc1cc(cc(OC)c1)OC,phenol,25,?C
OC1=CC=C(I)C=C1,4-Iodophenol,9.21,Log unit,Oc1ccc(I)cc1,phenol,25,?C
OC1=CC=CC(=C1)[N+]([O-])=O,3-nitrophenol,8.36,Log unit,Oc1cc([N+](=O)[O-])ccc1,phenol,,-
OC1=CC(=C(C=C1)[N+]([O-])=O)[N+]([O-])=O,"3,4-dinitrophenol",5.42,Log unit,Oc1ccc(c([N+](=O)[O-])c1)[N+](=O)[O-],phenol,25,?C
OC1=CC(=CC=C1)C1=CC=CC=C1,3-PHENYLPHENOL,9.64,Log unit,Oc1cc(ccc1)c1ccccc1,phenol,23,?C
CC(C)(C)C1=CC=CC(O)=C1,"3-(1,1-DIMETHYLETHYL)-PHENOL",10.119,Log unit,Oc1cc(ccc1)C(C)(C)C,phenol,25,?C
OC1=CC(=CC(=C1)[N+]([O-])=O)[N+]([O-])=O,"3,5-Dinitrophenol",6.69,Log unit,Oc1cc(cc([N+](=O)[O-])c1)[N+](=O)[O-],phenol,25,?C
OC1=CC(Cl)=CC(Cl)=C1,"3,5-Dichlorophenol",8.18,Log unit,Oc1cc(cc(Cl)c1)Cl,phenol,,-
NC1=CC(O)=CC=C1,3-AMINO-PHENOL,9.86,Log unit,Oc1cc(N)ccc1,phenol,20,?C
OC1=CC=CC(Br)=C1,3-Bromophenol,9.031,Log unit,Oc1cc(Br)ccc1,phenol,25,?C
OC1=CC(Cl)=C(Cl)C(Cl)=C1,"3,4,5-TRICHLOROPHENOL",7.84,Log unit,Oc1cc(c(Cl)c(c1)Cl)Cl,phenol,25,?C
CC(C)C1=CC=CC(O)=C1,3-Isopropylphenol,10.16,Log unit,Oc1cc(ccc1)C(C)C,phenol,20,?C
CCC1=CC=CC(O)=C1,3-ethylphenol,9.9,Log unit,Oc1cc(ccc1)CC,phenol,,-
CCOC1=CC(O)=CC=C1,3-Ethoxyphenol,9.65,Log unit,Oc1cc(OCC)ccc1,phenol,25,?C
CCOC1=CC=C(O)C=C1,4-Ethoxyphenol,10.13,Log unit,Oc1ccc(OCC)cc1,phenol,25,?C
OC1=CC(Br)=CC(Br)=C1,"3,5-DIBROMOPHENOL",8.06,Log unit,Oc1cc(cc(Br)c1)Br,phenol,25,?C
OC1=CC=CC(I)=C1,3-iodophenol,9.033,Log unit,Oc1cc(I)ccc1,phenol,25,?C
CCCC1=CC=C(O)C=C1,4-propylphenol,10.34,Log unit,Oc1ccc(cc1)CCC,phenol,20,?C
CCC1=CC(C)=CC(O)=C1,3-ETHYL-5-METHYLPHENOL,10.1,Log unit,Oc1cc(cc(c1)C)CC,phenol,28,?C
OC1=CC=C(C=C1)C#N,4-cyanophenol,7.967,Log unit,Oc1ccc(C#N)cc1,phenol,25,?C
OC1=CC=CC(=C1)C#N,3-Cyanophenol,8.61,Log unit,Oc1cc(C#N)ccc1,phenol,25,?C
CC1=CC2=CC3=CC=CC=C3N=C2C=C1,2-Methylacridine,5.74,Log unit,n1c2ccccc2cc2c1ccc(c2)C,n,25,?C
CC1=CC=CC2=CC3=CC=CC=C3N=C12,4-Methylacridine,5.6,Log unit,n1c2ccccc2cc2c1c(ccc2)C,n,25,?C
CNC1=C2C=CC=CC2=NC2=CC=CC=C12,9-methylaminoacridine,10.43,Log unit,n1c2ccccc2c(c2c1cccc2)NC,n,25,?C
C1CCC2=NC3=CC=CC=C3C=C2C1,"1,2,3,4-Tetrahydroacridine",6.38,Log unit,n1c2ccccc2cc2c1CCCC2,n,25,?C
[O-]S(=O)(=O)C1=CC2=CC3=C(C=CC=C3)N=C2C=C1,2-sulphoacridine,4.8,Log unit,n1c2c(cc(S(=O)(=O)[O-])cc2)cc2ccccc12,n,25,?C
C1=CC=C2C(C=CC3=C2C=CC=N3)=C1,Benzo[f]quinoline,4.625,Log unit,n1c2c(c3ccccc3cc2)ccc1,n,25,?C
C1=CC2=C(C=C1)C1=C(C=C2)N=CC=C1,7-aminobenzo[f]quinoline,4.8,Log unit,n1cccc2c1ccc1c2cccc1,n,25,?C
C1=CC2=CC3=C(C=C2C=C1)N=CC=C3,benzo[g]quinoline,5.01,Log unit,n1cccc2c1cc1ccccc1c2,n,25,?C
NC1=CC2=CC3=CC=CC=C3C=C2N=C1,3-aminobenzo[g]quinoline,4.74,Log unit,n1c2cc3ccccc3cc2cc(N)c1,n,25,?C
C1=CC2=C(C=C1)C1=C(C=CC=N1)C=C2,Benzo[h]quinoline,3.725,Log unit,n1cccc2c1c1ccccc1cc2,n,25,?C
C1=CC2=C(C=C1)C1=CC=CC=C1C=N2,phenanthridine,4.475,Log unit,n1cc2ccccc2c2ccccc12,n,25,?C
C1=CC2=NC3=CC=CC=C3N=C2C=C1,Phenazine,0.9,Log unit,n1c2ccccc2nc2c1cccc2,n,25,?C
NC1=CC2=NC3=CC=CC=C3N=C2C=C1,2-Aminophenazine,4.71,Log unit,n1c2ccccc2nc2c1ccc(c2)N,n,25,?C
NC1=CC2=NC3=C(C=C(N)C=C3)N=C2C=C1,"2,7-Diaminophenazine",4.29,Log unit,n1c2cc(ccc2nc2c1ccc(N)c2)N,n,25,?C
OC1=CC=CC2=NC3=CC=CC=C3N=C12,1-Hydroxyphenazine,1.61,Log unit,n1c2ccccc2nc2c1cccc2O,n,25,?C
OC1=CC2=NC3=CC=CC=C3N=C2C=C1,2-hydroxyphenazine,2.39,Log unit,n1c2ccccc2nc2c1ccc(c2)O,n,25,?C
C1=CC2=CC3=C(C=CC4=C3C=CC=C4)N=C2C=C1,Benz[a]acridine,4.7,Log unit,n1c2ccccc2cc2c1ccc1ccccc21,n,25,?C
OC1=CC=C(N=NC2=NC=CC=C2)C2=C1C=CC=C2,4-(2-pyridlazo)-1-naphthol,3,Log unit,n1c(N=Nc2ccc(O)c3ccccc23)cccc1,n,25,?C
OC1=C(N=NC2=NC=CC=C2)C2=C(C=CC=C2)C=C1,1-(2-pyridlazo)-2-naphthol,2.9,Log unit,n1c(N=Nc2c(O)ccc3ccccc23)cccc1,n,25,?C
OC1C(Cl)CC(CC1[N+]([O-])=O)[N+]([O-])=O,"NSC3 2-chloro-4,6-bis(hydroxy(oxido)amino)phenol",2.1,Log unit,OC1C(CC(CC1[N+](=O)[O-])[N+](=O)[O-])Cl,,,-
OC1CCC(CC1C=O)[N+]([O-])=O,NSC881 2-hydroxy-5-(hydroxy(oxido)amino)benzaldehyde,5.51,Log unit,OC1CCC(CC1C=O)[N+](=O)[O-],,,-
OC1CCC(CC1Cl)[N+]([O-])=O,NSC1316 2-chloro-4-(hydroxy(oxido)amino)phenol,5.45,Log unit,OC1C(CC([N+](=O)[O-])CC1)Cl,,,-
OC1CCC(CC1)[N+]([O-])=O,NSC1317 4-(hydroxy(oxido)amino)phenol,7.15,Log unit,OC1CCC([N+](=O)[O-])CC1,,,-