Smiles,Name,pKa,pKa Unit,Ionizable center smiles,IC group,Temperature,Temperature Unit
O[C@@H]1C[C@](O)(C[C@@H](OC(=O)\C=C\C2=CC(O)=C(O)C=C2)[C@@H]1O)C(O)=O,Chlorogenic Acid,2.66,Log unit,O=C(O)[C@@]1(CC(C(C(O=C(O)C=Cc2cc(c(cc2)O)O)C1)O)O)O,aliph. carboxylic acid,27,?C
NCC(=O)NC1=CC=C(C=C1)C(O)=O,4-[(ACETYLAMINO)AMINO]-BENZOIC ACID,4.2,Log unit,O=C(O)c1ccc(NC(=O)CN)cc1,benzoic acid (meta/para subs.),,-
OC(=O)CC1=CC2=C(C=C1)C(=O)C1=CC=CC=C1CS2,TIOPINAC,3.71,Log unit,O=C(O)Cc1cc2SCc3c(C(=O)c2cc1)cccc3,aliph. carboxylic acid,,-
C[C@H](O)C(O)=O,Lactic acid,3.86,Log unit,O=C(O)C(O)C,aliph. carboxylic acid,20,?C
CC[C@@H](C)C(O)=O,2-METHYL-BUTANOIC ACID,4.81,Log unit,O=C(O)C(CC)C,aliph. carboxylic acid,18,?C
C[C@@H](O)CC(O)=O,b-Hydroxybutyric Acid,4.41,Log unit,O=C(O)CC(O)C,aliph. carboxylic acid,22,?C
CC1=CC(=O)OC2=C1C=CC(O[C@@H]1O[C@@H]([C@@H](O)[C@H](O)[C@H]1O)C(O)=O)=C2,4-Methyl-umbelliferyl b-D-glucuronide,2.82,Log unit,O=C(O)C1OC(Oc2cc3O=C(O)cc(c3cc2)C)C(O)C(O)C1O,aliph. carboxylic acid,25,?C
C[C@H](Cl)C(O)=O,2-CHLOROPROPIONIC ACID,2.8,Log unit,O=C(O)C(Cl)C,aliph. carboxylic acid,25,?C
O[C@H](C(O)=O)C1=CC=CC=C1,A-HYDROXYPHENYLACETIC ACID,3.41,Log unit,O=C(O)C(O)c1ccccc1,aliph. carboxylic acid,25,?C
CCC[C@H](O)C(O)=O,2-hydroxy-pentanoic acid,3.89,Log unit,O=C(O)C(O)CCC,aliph. carboxylic acid,25,?C
C[C@@](O)(C(O)=O)C1=CC=CC=C1,ALPHA-HYDROXY-ALPHA-METHYL BENZENEACETIC ACID,3.53,Log unit,O=C(O)[C@@](O)(C)c1ccccc1,aliph. carboxylic acid,18,?C
CCC[C@@H](C)C(O)=O,"PENTANOIC ACID, 2-METHYL-",4.79,Log unit,O=C(O)C(CCC)C,aliph. carboxylic acid,18,?C
CC1(C)S[C@@H]2[C@H](NC(=O)CC3=CC=CC=C3)C(=O)N2[C@@H]1C(O)=O,Benzylpenicillin,2.74,Log unit,O=C(O)C1N2C(SC1(C)C)C(C2=O)NC(=O)Cc1ccccc1,aliph. carboxylic acid,25,?C
COC1=CC=CC(OC)=C1C(=O)N[C@H]1[C@H]2SC(C)(C)[C@H](N2C1=O)C(O)=O,Methicillin,2.77,Log unit,O=C(O)C1N2C(SC1(C)C)C(C2=O)NC(=O)c1c(cccc1OC)OC,aliph. carboxylic acid,,-
C[C@H](CCC(O)=O)[C@@H]1CC[C@@H]2[C@@H]3[C@H](O)C[C@H]4C[C@H](O)CC[C@]4(C)[C@H]3C[C@@H](O)[C@@]12C,cholic acid,4.98,Log unit,O=C(O)CCC(C1[C@@]2(C(O)CC3C(C2CC1)C(CC1[C@@]3(CCC(C1)O)C)O)C)C,aliph. carboxylic acid,20,?C
C[C@H](OC1=CC(Cl)=C(Cl)C=C1Cl)C(O)=O,Silvex,2.84,Log unit,O=C(O)C(Oc1cc(c(Cl)cc1Cl)Cl)C,aliph. carboxylic acid,,-
C[C@H](OC1=C(Cl)C=C(Cl)C=C1)C(O)=O,"2-(2,4-DICHLOROPHENOXY)PROPANOIC ACID",3.1,Log unit,O=C(O)C(Oc1c(Cl)cc(cc1)Cl)C,aliph. carboxylic acid,,-
OC[C@H](O)C(O)=O,Glyceric Acid,3.55,Log unit,O=C(O)C(O)CO,aliph. carboxylic acid,25,?C
OC(=O)CCCCC[C@@H]1NC(=O)CS1,Mycobacidin,5.1,Log unit,O=C(O)CCCCCC1SCC(=O)N1,aliph. carboxylic acid,,-
C[C@H](Br)C(O)=O,A-BROMOPROPIONIC ACID,2.97,Log unit,O=C(O)C(Br)C,aliph. carboxylic acid,18,?C
COC1=CC=C(C=C1)[C@@H](O)C(O)=O,"BENZENEACETIC ACID, _-HYDROXY-4-METHOXY-",3.42,Log unit,O=C(O)C(c1ccc(OC)cc1)O,aliph. carboxylic acid,25,?C
C[C@H](OC1=C(C)C=C(Cl)C=C1)C(O)=O,Mecoprop-P,3.68,Log unit,O=C(O)C(Oc1c(cc(Cl)cc1)C)C,aliph. carboxylic acid,20,?C
CCC[C@@H](CC)C(O)=O,2-ETHYLPENTANOIC ACID,4.71,Log unit,O=C(O)C(CCC)CC,aliph. carboxylic acid,18,?C
C[C@@H](C(O)=O)C1=CC=CC(OC2=CC=CC=C2)=C1,fenoprofen,4.5,Log unit,O=C(O)C(c1cc(Oc2ccccc2)ccc1)C,aliph. carboxylic acid,,-
CC1=C(CC(O)=O)C2=CC(F)=CC=C2\C1=C\C1=CC=C(C=C1)[S@](C)=O,Sulindac,4.7,Log unit,O=C(O)CC1=C(C(=Cc2ccc(cc2)S(=O)C)c2c1cc(F)cc2)C,aliph. carboxylic acid,,-
C[C@@H](C(O)=O)C1=CC=C(C=C1)C(=O)C1=CC=CS1,Suprofen,3.91,Log unit,O=C(O)C(c1ccc(C(=O)c2sccc2)cc1)C,aliph. carboxylic acid,,-
C[C@H](OC1=CC=C(OC2=C(Cl)C=C(Cl)C=C2)C=C1)C(O)=O,DICLOFOP,3.43,Log unit,O=C(O)C(Oc1ccc(Oc2c(Cl)cc(cc2)Cl)cc1)C,aliph. carboxylic acid,,-
C[C@H](OC1=CC=C(OC2=NC=C(C=C2Cl)C(F)(F)F)C=C1)C(O)=O,HALOXYFOP,2.9,Log unit,O=C(O)C(Oc1ccc(Oc2ncc(C(F)(F)F)cc2Cl)cc1)C,aliph. carboxylic acid,,-
OC(=O)C1=CC=C(C=C1)C#N,p-Cyanobenzoic acid,3.55,Log unit,O=C(O)c1ccc(C#N)cc1,benzoic acid (meta/para subs.),20,?C
OC(=O)C1=CC=CC(=C1)[N+]([O-])=O,m-Nitrobenzoic acid,3.46,Log unit,O=C(O)c1cc([N+](=O)[O-])ccc1,benzoic acid (meta/para subs.),25,?C
COC1=CC=CC(OCC(O)=O)=C1,{[3-(methyloxy)phenyl]oxy}acetic acid,3.14,Log unit,OC(=O)COc1cc(OC)ccc1,,,-
NC1=CC=C(C=C1)C(O)=O,4-Aminobenzoic acid,4.85,Log unit,O=C(O)c1ccc(N)cc1,benzoic acid (meta/para subs.),25,?C
OC(=O)CC1=CC=C(OCC=C)C(Cl)=C1,[3-chloro-4-(2-propen-1-yloxy)phenyl]acetic acid/alcofenac,4.29,Log unit,OC(=O)Cc1ccc(c(Cl)c1)OCC=C,,,-
OC(=O)COC1=CC=C(C=C1)[N+]([O-])=O,[(4-nitrophenyl)oxy]acetic acid,2.89,Log unit,OC(=O)COc1ccc([N+](=O)[O-])cc1,,,-
OC(=O)COC1=C(Br)C=CC=C1,[(2-bromophenyl)oxy]acetic acid,3.13,Log unit,OC(=O)COc1c(Br)cccc1,,,-
OC(=O)C1=CC=C(F)C=C1,p-Fluorobenzoic acid,4.14,Log unit,O=C(O)c1ccc(F)cc1,benzoic acid (meta/para subs.),25,?C
COC1=CC=C(OCC(O)=O)C=C1,{[4-(methyloxy)phenyl]oxy}acetic acid,2.31,Log unit,OC(=O)COc1ccc(cc1)OC,,,-
OC(=O)COC1=CC=C(C=C1)C#N,[(4-cyanophenyl)oxy]acetic acid,2.93,Log unit,OC(=O)COc1ccc(C#N)cc1,,,-
OC(=O)COC1=CC=CC(=C1)[N+]([O-])=O,[(3-nitrophenyl)oxy]acetic acid,2.95,Log unit,OC(=O)COc1cc([N+](=O)[O-])ccc1,,,-
OC(=O)CCCCC1=CC=CC=C1,5-PHENYLPENTANOIC ACID,4.88,Log unit,OC(=O)CCCCc1ccccc1,,,-
OC(=O)CC1=CC=C(Cl)C=C1,(4-Chlorophenyl)acetic acid,4.19,Log unit,OC(=O)Cc1ccc(Cl)cc1,,,-
COC1=CC2=C(C=C1)C=C(C=C2)[C@@H](C)C(O)=O,2-[6-(methyloxy)-2-naphthalenyl]propanoic acid/naprosyn,4.15,Log unit,OC(=O)C(c1cc2c(cc1)cc(OC)cc2)C,,,-
OC(=O)COC1=CC(Br)=CC=C1,[(3-bromophenyl)oxy]acetic acid,3.09,Log unit,OC(=O)COc1cc(Br)ccc1,,,-
CCCN(CCC)S(=O)(=O)C1=CC=C(C=C1)C(O)=O,Probenecid,3.4,Log unit,O=C(O)c1ccc(S(=O)(=O)N(CCC)CCC)cc1,benzoic acid (meta/para subs.),,-
OC(=O)CC1=CC=CC=C1NC1=C(Cl)C=CC=C1Cl,"{2-[(2,6-dichlorophenyl)amino]phenyl}acetic acid/diclofenac",4.15,Log unit,OC(=O)Cc1c(Nc2c(Cl)cccc2Cl)cccc1,,,-
C[C@H](C(O)=O)C1=CC(=CC=C1)C(=O)C1=CC=CC=C1,2-[3-(phenylcarbonyl)phenyl]propanoic acid/ketoprofen,4.45,Log unit,OC(=O)C(c1cc(ccc1)C(=O)c1ccccc1)C,,,-
CC(C)CCC(O)=O,4-METHYLPENTANOIC ACID,4.84,Log unit,OC(=O)CCC(C)C,,,-
OC(=O)C1=CC=C(O)C=C1,p-hydroxybenzoic acid,4.54,Log unit,O=C(O)c1ccc(O)cc1,benzoic acid (meta/para subs.),,-
OC(=O)C1=CC=C(I)C=C1,4-iodobenzoic acid,3.997,Log unit,O=C(O)c1ccc(I)cc1,benzoic acid (meta/para subs.),25,?C
CC1=CC=CC(=C1)C(O)=O,m-toluic acid,4.27,Log unit,O=C(O)c1cc(ccc1)C,benzoic acid (meta/para subs.),25,?C
CC1=CC=C(CC(O)=O)C=C1,(4-Methylphenyl)acetic acid,4.37,Log unit,OC(=O)Cc1ccc(C)cc1,,,-
OC(=O)C1=CC=CC(=C1)C#N,m-Cyanobenzoic acid,3.6,Log unit,O=C(O)c1cc(C#N)ccc1,benzoic acid (meta/para subs.),20,?C
CC(C)CC1=CC=C(C=C1)C(C)C(O)=O,2-[4-(2-methylpropyl)phenyl]propanoic acid/ibuprofen,4.45,Log unit,OC(=O)C(c1ccc(CC(C)C)cc1)C,,,-
NC1=C(N)C=C(C=C1)C(O)=O,"3,4-DIAMINO-BENZOIC ACID",3.49,Log unit,O=C(O)c1ccc(c(N)c1)N,benzoic acid (meta/para subs.),25,?C
OC(=O)CN1C(=O)SC2=CC=CC(Cl)=C12,"(4-chloro-2-oxo-1,3-benzothiazol-3(2H)-yl)acetic acid",3.04,Log unit,OC(=O)Cn1c(=O)sc2c1c(Cl)ccc2,,,-
COC1=C(OCC(O)=O)C=CC=C1,{[2-(methyloxy)phenyl]oxy}acetic acid,3.23,Log unit,OC(=O)COc1ccccc1OC,,,-
OC(=O)C1=CC=CC(I)=C1,3-Iodobenzoic Acid,3.85,Log unit,O=C(O)c1cc(I)ccc1,benzoic acid (meta/para subs.),25,?C
OC(=O)C1=CC(O)=C(O)C(O)=C1,"3,4,5-Trihydroxybenzoic acid",4.21,Log unit,O=C(O)c1cc(c(O)c(c1)O)O,benzoic acid (meta/para subs.),20,?C
CC1=CC=C(C=C1)C(O)=O,p-toluic acid,4.37,Log unit,O=C(O)c1ccc(cc1)C,benzoic acid (meta/para subs.),25,?C
OC(=O)COC1=C(O)C=CC=C1,[(2-hydroxyphenyl)oxy]acetic acid,3.02,Log unit,OC(=O)COc1ccccc1O,,,-
OC(=O)C1=CC=CC(Cl)=C1,m-chlorobenzoic acid,3.81,Log unit,O=C(O)c1cc(Cl)ccc1,benzoic acid (meta/para subs.),25,?C
OC(=O)C1=CC=CC(F)=C1,m-Fluorobenzoic acid,3.86,Log unit,O=C(O)c1cc(F)ccc1,benzoic acid (meta/para subs.),25,?C
OC(=O)CCCC1=CC=CC=C1,4-Phenylbutanoic acid,4.76,Log unit,OC(=O)CCCc1ccccc1,,,-
OC(=O)COC1=CC=CC=C1Cl,[(2-chlorophenyl)oxy]acetic acid,3.05,Log unit,OC(=O)COc1ccccc1Cl,,,-
OC(=O)C1=CC=C(C=C1)[N+]([O-])=O,p-Nitrobenzoic acid,3.44,Log unit,O=C(O)c1ccc([N+](=O)[O-])cc1,benzoic acid (meta/para subs.),,-
OC(=O)[C@@H]1CCN2C1=CC=C2C(=O)C1=CC=CC=C1,"5-(phenylcarbonyl)-2,3-dihydro-1H-pyrrolo[1,2-a]pyrrole-1-carboxylic acid/ketorolac",3.49,Log unit,OC(=O)C1c2n(CC1)c(cc2)C(=O)c1ccccc1,,,-
CC1=C(OCC(O)=O)C=CC=C1,[(2-methylphenyl)oxy]acetic acid,3.23,Log unit,OC(=O)COc1ccccc1C,,,-
OC(=O)CC1=CC=C(Br)C=C1,(4-Bromophenyl)acetic acid,4.19,Log unit,OC(=O)Cc1ccc(cc1)Br,,,-
CC(C(O)=O)C1=CC(OC2=CC=CC=C2)=CC=C1,2-[3-(phenyloxy)phenyl]propanoic acid/fenoprofen,4.5,Log unit,OC(=O)C(C)c1cccc(Oc2ccccc2)c1,,,-
OC(=O)COC1=NC(Cl)=C(Cl)C=C1Cl,"[(3,5,6-Trichloro-2-pyridinyl)oxy]acetic acid",2.68,Log unit,OC(=O)COc1nc(Cl)c(Cl)cc1Cl,,,-
OC(=O)C1=CC=C(OC2=CC=CC=C2)C=C1,p-Phenoxybenzoic acid,4.52,Log unit,O=C(O)c1ccc(Oc2ccccc2)cc1,benzoic acid (meta/para subs.),,-
CC1=CC=C(OCC(O)=O)C=C1,[(4-methylphenyl)oxy]acetic acid,3.21,Log unit,OC(=O)COc1ccc(cc1)C,,,-
OC(=O)COC1=CC=C(Br)C=C1,[(4-bromophenyl)oxy]acetic acid,3.13,Log unit,OC(=O)COc1ccc(cc1)Br,,,-
OC(=O)C1=CC=C(Br)C=C1,P-BROMOBENZOIC ACID,4,Log unit,O=C(O)c1ccc(Br)cc1,benzoic acid (meta/para subs.),20,?C
OC(=O)COC1=CC(=CC=C1)C#N,[(3-cyanophenyl)oxy]acetic acid,3.03,Log unit,OC(=O)COc1cccc(C#N)c1,,,-
OC(=O)C1=CC=CC(Br)=C1,m-Bromobenzoic acid,3.81,Log unit,O=C(O)c1cc(Br)ccc1,benzoic acid (meta/para subs.),20,?C
CC1=CC=CC(OCC(O)=O)=C1,[(3-methylphenyl)oxy]acetic acid,3.2,Log unit,OC(=O)COc1cc(C)ccc1,,,-
OC(=O)CC1=CC(Cl)=CC=C1,(3-chlorophenyl)acetic acid,4.14,Log unit,OC(=O)Cc1cc(Cl)ccc1,,,-
COC1=C(O)C=CC(=C1)C(O)=O,4-HYDROXY-3-METHOXYBENZOIC ACID,4.51,Log unit,O=C(O)c1ccc(c(OC)c1)O,benzoic acid (meta/para subs.),25,?C
C[C@@H](OC1=CC=C(Cl)C=C1C)C(O)=O,2-[(4-chloro-2-methylphenyl)oxy]propanoic acid,3.68,Log unit,OC(=O)C(Oc1c(cc(Cl)cc1)C)C,,,-
OC(=O)C1=CC=CC=C1,Benzoic acid,4.19,Log unit,O=C(O)c1ccccc1,benzoic acid (meta/para subs.),25,?C
OC(=O)CC1=CC(=CC=C1)[N+]([O-])=O,(3-nitrophenyl)acetic acid,3.97,Log unit,OC(=O)Cc1cc([N+](=O)[O-])ccc1,,,-
NC1=CC(=CC=C1)C(O)=O,3-Aminobenzoic acid,4.74,Log unit,O=C(O)c1cc(N)ccc1,benzoic acid (meta/para subs.),25,?C
COC1=CC(=CC=C1)C(O)=O,m-Methoxybenzoic acid,4.09,Log unit,O=C(O)c1cc(OC)ccc1,benzoic acid (meta/para subs.),25,?C
OC(=O)C1=CC=C(Cl)C=C1,4-Chlorobenzoic Acid,3.98,Log unit,O=C(O)c1ccc(Cl)cc1,benzoic acid (meta/para subs.),25,?C
CC(N(C(=O)C1=CC=CC=C1)C1=CC(Cl)=C(F)C=C1)C(O)=O,N-(3-chloro-4-fluorophenyl)-N-(phenylcarbonyl)alanine,3.72,Log unit,OC(=O)C(N(c1cc(Cl)c(F)cc1)C(=O)c1ccccc1)C,,,-
C[C@H](OC1=CC=C(OC2=CC=C(C=N2)C(F)(F)F)C=C1)C(O)=O,2-[(4-{[5-(trifluoromethyl)-2-pyridinyl]oxy}phenyl)oxy]propanoic acid,3.12,Log unit,OC(=O)C(Oc1ccc(Oc2ncc(C(F)(F)F)cc2)cc1)C,,,-
COC1=CC=C(C=C1)C(O)=O,p-Methoxybenzoic acid,4.47,Log unit,O=C(O)c1ccc(OC)cc1,benzoic acid (meta/para subs.),25,?C
OC(=O)CCC(=O)C1=CC=C(C=C1)C1=CC=CC=C1,4-(4-biphenylyl)-4-oxobutanoic acid/fenbufen,4.51,Log unit,OC(=O)CCC(=O)c1ccc(cc1)c1ccccc1,,,-
OC(=O)C1=CC(Cl)=CC(Cl)=C1,"3,5-DICHLOROBENZOIC ACID",3.54,Log unit,O=C(O)c1cc(cc(Cl)c1)Cl,benzoic acid (meta/para subs.),22,?C
OC(=O)C1=CC(Cl)=C(Cl)C=C1,"3,4-DICHLOROBENZOIC ACID",3.64,Log unit,O=C(O)c1ccc(c(Cl)c1)Cl,benzoic acid (meta/para subs.),25,?C
COC1=C(OC)C=C(C=C1)C(O)=O,"3,4-DIMETHOXYBENZOIC ACID",4.36,Log unit,O=C(O)c1ccc(c(OC)c1)OC,benzoic acid (meta/para subs.),25,?C
OC(=O)C1=CC2=C(C=CC=C2)C=C1,2-NAPHTHOIC ACID,4.17,Log unit,O=C(O)c1cc2c(cc1)cccc2,benzoic acid (meta/para subs.),20,?C
CC(C)(C)C1=CC=C(C=C1)C(O)=O,4-(TERT-BUTYL)-BENZOIC ACID,4.4,Log unit,O=C(O)c1ccc(cc1)C(C)(C)C,benzoic acid (meta/para subs.),25,?C
OC(=O)C1=CC(O)=CC(O)=C1,"3,5-DIHYDROXYBENZOIC ACID",4.04,Log unit,O=C(O)c1cc(cc(O)c1)O,benzoic acid (meta/para subs.),25,?C
OC(=O)C1=CC(=CC(=C1)[N+]([O-])=O)[N+]([O-])=O,"3,5-DINITROBENZOIC ACID",2.82,Log unit,O=C(O)c1cc(cc([N+](=O)[O-])c1)[N+](=O)[O-],benzoic acid (meta/para subs.),25,?C
OC(=O)C1=CC(O)=C(O)C=C1,"3,4-DIHYDROXYBENZOIC ACID",4.48,Log unit,O=C(O)c1ccc(c(O)c1)O,benzoic acid (meta/para subs.),25,?C
OC(=O)C1=CC(=C(C=C1)[N+]([O-])=O)[N+]([O-])=O,"3,4-DINITROBENZOIC ACID",2.82,Log unit,O=C(O)c1ccc(c([N+](=O)[O-])c1)[N+](=O)[O-],benzoic acid (meta/para subs.),25,?C
COC1=CC(=CC(OC)=C1O)C(O)=O,"4-OH-3,5-DIMETHOXYBENZIOC ACID",4.34,Log unit,O=C(O)c1cc(c(c(OC)c1)O)OC,benzoic acid (meta/para subs.),25,?C
CC(C)C1=CC=C(C=C1)C(O)=O,CUMIC ACID,4.35,Log unit,O=C(O)c1ccc(cc1)C(C)C,benzoic acid (meta/para subs.),25,?C
CC(=O)C1=CC=C(C=C1)C(O)=O,P-ACETYLBENZOIC ACID,3.7,Log unit,O=C(O)c1ccc(cc1)C(=O)C,benzoic acid (meta/para subs.),25,?C
CCCC(C(O)=O)C(O)=O,PROPYLPROPANEDIOIC ACID,2.99,Log unit,OC(=O)C(CCC)C(=O)O,,,-
OC(=O)C1=CC(C=O)=CC=C1,3-FORMYLBENZOIC ACID,3.84,Log unit,O=C(O)c1cc(ccc1)C=O,benzoic acid (meta/para subs.),25,?C
CCC1=CC=C(C=C1)C(O)=O,4-ETHYLBENZOIC ACID,4.35,Log unit,O=C(O)c1ccc(cc1)CC,benzoic acid (meta/para subs.),25,?C
OC(=O)C1=CC=C(C=O)C=C1,4-FORMYLBENZOIC ACID,3.77,Log unit,O=C(O)c1ccc(cc1)C=O,benzoic acid (meta/para subs.),25,?C
CCOC1=CC=C(C=C1)C(O)=O,P-ETHOXYBENZOIC ACID,4.45,Log unit,O=C(O)c1ccc(OCC)cc1,benzoic acid (meta/para subs.),20,?C
ON(CC(O)=O)C=O,N-FORMYL-N-HYDROXYGLYCINE,3.5,Log unit,OC(=O)CN(C=O)O,,,-
COC1=CC(=CC(OC)=C1)C(O)=O,"3,5-DIMETHOXYBENZOIC ACID",3.97,Log unit,O=C(O)c1cc(cc(OC)c1)OC,benzoic acid (meta/para subs.),25,?C
OC(=O)C1CC1,CYCLOPROPANECARBOXYLIC ACID,4.83,Log unit,OC(=O)C1CC1,,,-
OC(=O)COC1=CC=CC=C1N(=O)=O,[(2-nitrophenyl)oxy]acetic acid,2.9,Log unit,OC(=O)COc1ccccc1N(=O)=O,,,-
OC(=O)COC1=C2C=CC=CC2=CC=C1,(1-naphthalenyloxy)acetic acid,3.2,Log unit,OC(=O)COc1c2ccccc2ccc1,,,-
OC(=O)CC1CCCCC1,CYCLOHEXYLACETIC ACID,4.8,Log unit,OC(=O)CC1CCCCC1,,,-
COC1=CC=C(C=C1)C(O)C(O)=O,hydroxy[4-(methyloxy)phenyl]acetic acid,3.42,Log unit,OC(=O)C(c1ccc(cc1)OC)O,,,-
CCC1=CC=C(CC(O)=O)C=C1,(4-ethylphenyl)acetic acid,4.37,Log unit,OC(=O)Cc1ccc(CC)cc1,,,-
OC(=O)CCOC1=CC=CC2=C1C=CC=C2,3-(1-naphthalenyloxy)propanoic acid,4,Log unit,OC(=O)CCOc1cccc2ccccc12,,,-
OC(=O)CC1=C(N=C(S1)C1=CC=CC=C1)C1=CC=C(Cl)C=C1,"[4-(4-chlorophenyl)-2-phenyl-1,3-thiazol-5-yl]acetic acid/fentiazac",3.6,Log unit,OC(=O)Cc1sc(c2ccccc2)nc1c1ccc(Cl)cc1,,,-
CC(C)(C)C1=CC=C(CC(O)=O)C=C1,"[4-(1,1-dimethylethyl)phenyl]acetic acid",4.42,Log unit,OC(=O)Cc1ccc(cc1)C(C)(C)C,,,-
OC(=O)CC1=CN(N=C1C1=CC=C(Cl)C=C1)C1=CC=CC=C1,[3-(4-chlorophenyl)-1-phenyl-1H-pyrazol-4-yl]acetic acid/ionazolac,4.3,Log unit,OC(=O)Cc1c(c2ccc(Cl)cc2)nn(c2ccccc2)c1,,,-
OC(=O)COC1=CC(=C(Cl)C=C1)N(=O)=O,[(4-chloro-3-nitrophenyl)oxy]acetic acid,2.96,Log unit,OC(=O)COc1cc(N(=O)=O)c(Cl)cc1,,,-
OC(=O)C1CC(=O)C(=C(O)C2CC2)C(=O)C1,"4-(cyclopropylcarbonyl)-3,5-dioxocyclohexanecarboxylic acid",5.32,Log unit,OC(=C1C(=O)CC(CC1=O)C(=O)O)C1CC1,,,-
OC(=O)CC1=CC2=C(C=C1)C(=O)C1=CC=CC=C1CS2,"(11-oxo-6,11-dihydrodibenzo[b,e]thiepin-2-yl)acetic acid/tiopinac",3.71,Log unit,OC(=O)Cc1cc2SCc3c(C(=O)c2cc1)cccc3,,,-
CCC[C@H](O)C(O)=O,2-Hydroxypentanoic acid,2.89,Log unit,OC(=O)C(O)CCC,,,-
CCC[C@@H](CC)C(O)=O,2-ETHYLPENTANOIC ACID,4.71,Log unit,OC(=O)C(CCC)CC,,,-
CC1=C(CC(O)=O)C2=CC(F)=CC=C2\C1=C\C1=CC=C(C=C1)[S@](C)=O,((1E)-5-fluoro-2-methyl-1-{[4-(methylsulfinyl)phenyl]methylidene}-1H-inden-3-yl)acetic acid/sulindac,4.7,Log unit,OC(=O)CC1=C(C(=Cc2ccc(cc2)S(=O)C)c2c1cc(F)cc2)C,,,-
C[C@@H](C(O)=O)C1=CC=C(C=C1)C(=O)C1=CC=CS1,2-[4-(2-thienylcarbonyl)phenyl]propanoic acid/suprofen,3.91,Log unit,OC(=O)C(c1ccc(C(=O)c2sccc2)cc1)C,,,-
C[C@H](OC1=CC=C(OC2=C(Cl)C=C(Cl)C=C2)C=C1)C(O)=O,"2-({4-[(2,4-dichlorophenyl)oxy]phenyl}oxy)propanoic acid",3.43,Log unit,OC(=O)C(Oc1ccc(Oc2c(Cl)cc(cc2)Cl)cc1)C,,,-
C[C@H](OC1=CC=C(OC2=NC=C(C=C2Cl)C(F)(F)F)C=C1)C(O)=O,2-[(4-{[3-chloro-5-(trifluoromethyl)-2-pyridinyl]oxy}phenyl)oxy]propanoic acid,2.9,Log unit,OC(=O)C(Oc1ccc(Oc2ncc(C(F)(F)F)cc2Cl)cc1)C,,,-
NC1=CC=C(N)C(O)=C1N,-,10,Log unit,Nc1ccc(N)c(O)c1N,,,-
OCC(O)=O,hydroxyacetic acid,3.83,Log unit,OC(=O)CO,,,-
OC(=O)C1=C(O)C=CC=C1O,"2,6-Dihydroxybenzoic Acid",1.05,Log unit,OC(=O)c1c(O)cccc1O,,,-
C[C@H](CCC(O)=O)[C@H]1CC[C@H]2[C@@H]3[C@H](O)C[C@@H]4C[C@H](O)CC[C@]4(C)[C@H]3C[C@H](O)[C@]12C,"3,7,12-Trihydroxycholan-24-oic acid",4.98,Log unit,OC(=O)CCC(C1C2(C(C3C(C4(C(CC3O)CC(O)CC4)C)CC2O)CC1)C)C,,,-
CC1(C)S[C@@H]2[C@H](NC(=O)COC3=CC=CC=C3)C(=O)N2[C@H]1C(O)=O,"3,3-dimethyl-7-oxo-6-{[(phenyloxy)acetyl]amino}-4-thia-1-azabicyclo[3.2.0]heptane-2-carboxylic acid/phenoxymethylpenicillin",2.79,Log unit,OC(=O)C1C(C)(C)SC2C(C(=O)N12)NC(=O)COc1ccccc1,,,-
CC(C)(O)C(O)=O,2-Hydroxy-2-methylpropanoic acid,3.61,Log unit,OC(=O)C(C)(C)O,,,-
OC(=O)COC1=C(F)C=CC=C1,[(2-fluorophenyl)oxy]acetic acid,3.08,Log unit,OC(=O)COc1ccccc1F,,,-
COC1=CC2=C(C=C1)N(C(=O)C1=CC=C(Cl)C=C1)C(C)=C2CC(O)=O,[1-[(4-chlorophenyl)carbonyl]-2-methyl-5-(methyloxy)-1H-indol-3-yl]acetic acid/indomethacin,4.5,Log unit,OC(=O)Cc1c(n(c2c1cc(OC)cc2)C(=O)c1ccc(cc1)Cl)C,,,-
OC(=O)CS,Mercaptoacetic acid,3.55,Log unit,OC(=O)CS,,,-
OC(=O)COC1=CC(F)=CC=C1,[(3-fluorophenyl)oxy]acetic acid,3.13,Log unit,OC(=O)COc1cc(F)ccc1,,,-
CCCC(O)=O,butanoic acid,4.82,Log unit,OC(=O)CCC,,,-
OC(=O)CCl,chloroacetic acid,2.87,Log unit,OC(=O)CCl,,,-
CC(C)CC(O)=O,3-Methylbutanoic acid,4.77,Log unit,OC(=O)CC(C)C,,,-
NC1=CC=C(C=C1)C(=O)NCC(O)=O,N-[(4-aminophenyl)carbonyl]glycine,3.8,Log unit,Nc1ccc(C(=O)NCC(=O)O)cc1,,,-
COC1=CC=CC=C1C(O)=O,2-(methyloxy)benzoic acid,3.9,Log unit,OC(=O)c1ccccc1OC,,,-
CC(C)(C)C(O)=O,"2,2-DIMETHYLPROPANOIC ACID",5.03,Log unit,OC(=O)C(C)(C)C,,,-
COC1=C(Cl)C=CC(Cl)=C1C(O)=O,"3,6-dichloro-2-(methyloxy)benzoic acid",1.97,Log unit,OC(=O)c1c(OC)c(Cl)ccc1Cl,,,-
OC(C(O)=O)C1=CC=CC=C1,Hydroxy(phenyl)acetic acid,3.41,Log unit,OC(=O)C(O)c1ccccc1,,,-
OC(=O)CCCC1=CC=C(C=C1)N(CCCl)CCCl,4-{4-[bis(2-chloroethyl)amino]phenyl}butanoic acid/chlorambucil,5.75,Log unit,OC(=O)CCCc1ccc(cc1)N(CCCl)CCCl,,,-
CC1(C)S[C@@H]2[C@H](NC(=O)CC3=CC=CC=C3)C(=O)N2[C@H]1C(O)=O,"3,3-dimethyl-7-oxo-6-[(phenylacetyl)amino]-4-thia-1-azabicyclo[3.2.0]heptane-2-carboxylic acid/benzylpenicillin",2.74,Log unit,OC(=O)C1C(C)(C)SC2C(C(=O)N12)NC(=O)Cc1ccccc1,,,-
CC(O)C(O)=O,2-hydroxypropanoic acid,3.86,Log unit,OC(=O)C(C)O,,,-
OC(=O)CBr,Bromoacetic Acid,2.89,Log unit,OC(=O)CBr,,,-
CC(C)C(O)=O,2-Methylpropanoic acid,4.84,Log unit,OC(=O)C(C)C,,,-
OC(=O)COC1=CC=CC=C1,(phenyloxy)acetic acid,3.17,Log unit,OC(=O)COc1ccccc1,,,-
OC(=O)CC1=CC=C(F)C=C1,(4-Fluorophenyl)acetic acid,4.24,Log unit,OC(=O)Cc1ccc(cc1)F,,,-
CC(Br)C(O)=O,2-Bromopropanoic acid,2.97,Log unit,OC(=O)C(Br)C,,,-
CCCC(CCC)C(O)=O,2-Propylpentanoic acid,4.6,Log unit,OC(=O)C(CCC)CCC,,,-
COC1=CC=C(CC(O)=O)C=C1,[4-(methyloxy)phenyl]acetic acid,4.36,Log unit,OC(=O)Cc1ccc(cc1)OC,,,-
OC(=O)C1CCCCC1,cyclohexanecarboxylic acid,4.9,Log unit,OC(=O)C1CCCCC1,,,-
[O-]C(=O)CC([O-])=O,propanedioic acid,2.85,Log unit,[O-]C(=O)CC(=O)[O-],,,-
CC(C)(C([O-])=O)C([O-])=O,dimethylpropanedioic acid,3.15,Log unit,[O-]C(=O)C(C)(C)C(=O)[O-],,,-
OC(=O)COC1=C(Cl)C=C(Cl)C=C1,"[(2,4-dichlorophenyl)oxy]acetic acid",2.73,Log unit,OC(=O)COc1ccc(cc1Cl)Cl,,,-
CCC(CC)C(O)=O,2-Ethylbutanoic acid,4.71,Log unit,OC(=O)C(CC)CC,,,-
OC(=O)C1=C(OC2=CC=CC=C2)C=CC=C1,2-(phenyloxy)benzoic acid,3.53,Log unit,OC(=O)c1c(cccc1)Oc1ccccc1,,,-
OC(=O)CC1=C2C=CC=CC2=CC=C1,1-naphthalenylacetic acid,4.23,Log unit,OC(=O)Cc1cccc2ccccc12,,,-
OC(=O)C(C1=CC=CC=C1)C1=CC=CC=C1,diphenylacetic acid,3.94,Log unit,OC(=O)C(c1ccccc1)c1ccccc1,,,-
OC(=O)CCCl,3-Chloropropanoic acid,3.99,Log unit,OC(=O)CCCl,,,-
CC(O)=O,acetic acid,4.76,Log unit,OC(=O)C,,,-
OC(=O)CC1=C(Cl)C=CC(Cl)=C1Cl,"(2,3,6-Trichlorophenyl)acetic acid",3.7,Log unit,OC(=O)Cc1c(Cl)ccc(Cl)c1Cl,,,-
COC1=CC=CC(OC)=C1C(=O)N[C@H]1[C@H]2SC(C)(C)[C@@H](N2C1=O)C(O)=O,"6-({[2,6-bis(methyloxy)phenyl]carbonyl}amino)-3,3-dimethyl-7-oxo-4-thia-1-azabicyclo[3.2.0]heptane-2-carboxylic acidmethicillin",2.77,Log unit,OC(=O)C1C(C)(C)SC2C(C(=O)N12)NC(=O)c1c(OC)cccc1OC,,,-
OC(=O)CC1=CNC2=CC=CC=C12,1H-indol-3-ylacetic acid,4.75,Log unit,OC(=O)Cc1c[nH]c2c1cccc2,,,-
OC(=O)C1=CC=CC=C1N(=O)=O,2-NITROBENZOIC ACID,2.17,Log unit,OC(=O)c1ccccc1N(=O)=O,,,-
OC(=O)COC1=CC(Cl)=C(Cl)C=C1Cl,"[(2,4,5-trichlorophenyl)oxy]acetic acid",2.83,Log unit,OC(=O)COc1cc(Cl)c(Cl)cc1Cl,,,-
OC(=O)COC1=CC(Cl)=C(Cl)C=C1,"[(3,4-dichlorophenyl)oxy]acetic acid",2.92,Log unit,OC(=O)COc1ccc(c(Cl)c1)Cl,,,-
OC(=O)COC1=CC=C(Cl)C=C1,[(4-chlorophenyl)oxy]acetic acid,3.1,Log unit,OC(=O)COc1ccc(Cl)cc1,,,-
OC(=O)C(O)(C1=CC=CC=C1)C1=CC=CC=C1,hydroxy(diphenyl)acetic acid,3.05,Log unit,OC(=O)C(O)(c1ccccc1)c1ccccc1,,,-