Smiles,Name,pKa,pKa Unit,Ionizable center smiles,IC group,Temperature,Temperature Unit
OB(O)C1=CC=CC(O)=C1,m-hydroxyphenylboric acid,8.55,Log unit,O[B](O)c1cccc(c1)O,,25,?C
SP(=S)(OC1=CC=CC=C1)OC1=CC=CC=C1,di-phenoxy-dithiophosphoric acid,1.81,Log unit,SP(=S)(Oc1ccccc1)Oc1ccccc1,,25,?C
COP(S)(=S)OC,di-methoxy-dithiophosphoric acid,1.55,Log unit,SP(=S)(OC)OC,,25,?C
CCOP(S)(=S)OCC,di-ethoxy-dithiophosphoric acid,1.62,Log unit,SP(=S)(OCC)OCC,,25,?C
CC(C)OP(S)(=S)OC(C)C,di-isopropoxy-dithiophosphoric acid,1.82,Log unit,SP(=S)(OC(C)C)OC(C)C,,25,?C
SP(=S)(C1=CC=C(Cl)C=C1)C1=CC=C(Cl)C=C1,di-p-chlorophenyl-dithiophosphoric acid,1.79,Log unit,SP(=S)(c1ccc(Cl)cc1)c1ccc(Cl)cc1,,25,?C
CC(C)COP(S)(=S)OCC(C)C,di-butoxy-dithiophosphoric acid,1.79,Log unit,SP(=S)(OCC(C)C)OCC(C)C,,25,?C
CCCOP(S)(=S)OCCC,di-n-propoxy-dithiophosphoric acid,1.75,Log unit,SP(=S)(OCCC)OCCC,,25,?C
CCCCOP(S)(=S)OCCCC,di-n-butoxy-dithiophosphoric acid,1.83,Log unit,SP(=S)(OCCCC)OCCCC,,25,?C
SP(=S)(C1=CC=CC=C1)C1=CC=CC=C1,di-phenyl-dithiophosphoric acid,1.75,Log unit,SP(=S)(c1ccccc1)c1ccccc1,,25,?C
CCCOP(C)(S)=S,ethoxy-methyl-dithiophosphoric acid,1.74,Log unit,SP(=S)(C)OCCC,,25,?C
CC1=CC=C(C=C1)P(S)(=S)C1=CC=C(C)C=C1,di-p-methylphenyl-dithiophosphoric acid,1.81,Log unit,SP(=S)(c1ccc(C)cc1)c1ccc(C)cc1,,25,?C
CCCCOP(C)(S)=S,butoxy-methyl-dithiophosphoric acid,1.73,Log unit,SP(=S)(C)OCCCC,,25,?C
CCP(S)(=S)CC,di-n-ethyl-dithiophosphoric acid,1.71,Log unit,SP(=S)(CC)CC,,25,?C
CCCP(S)(=S)CCC,di-n-propyl-dithiophosphoric acid,1.84,Log unit,SP(=S)(CCC)CCC,,25,?C
CCCP(S)(=S)CCC,di-n-butyl-dithiophosphoric acid,1.79,Log unit,SP(=S)(CCC)CCC,,25,?C
CC(C)P(S)(=S)C(C)C,di-iso-propyl-dithiophosphoric acid,1.64,Log unit,SP(=S)(C(C)C)C(C)C,,25,?C
OP(=S)(OC1=CC=CC=C1)OC1=CC=CC=C1,di-phenoxy-thiophosphoric acid,1.5,Log unit,OP(=S)(Oc1ccccc1)Oc1ccccc1,,25,?C
CCOP(O)(=S)OCC,di-ethoxy-thiophosphoric acid,1.49,Log unit,OP(=S)(OCC)OCC,,25,?C
CC(C)OP(O)(=S)OC(C)C,di-isopropoxy-thiophosphoric acid,1.59,Log unit,OP(=S)(OC(C)C)OC(C)C,,25,?C
OP(=S)(C1=CC=C(Cl)C=C1)C1=CC=C(Cl)C=C1,di-p-chlorophenyl-thiophosphoric acid,1.6,Log unit,OP(=S)(c1ccc(Cl)cc1)c1ccc(Cl)cc1,,25,?C
CCC(C)OP(O)(=S)OC(C)CC,di-isobutoxy-thiophosphoric acid,1.55,Log unit,OP(=S)(OC(C)CC)OC(C)CC,,25,?C
CCCOP(O)(=S)OCCC,di-n-propoxy-thiophosphoric acid,1.55,Log unit,OP(=S)(OCCC)OCCC,,25,?C
CCCCOP(O)(=S)OCCCC,di-n-butoxy-thiophosphoric acid,1.65,Log unit,OP(=S)(OCCCC)OCCCC,,25,?C
CCOP(C)(O)=S,butoxy-methyl-thiophosphoric acid,1.82,Log unit,OP(=S)(C)OCC,,25,?C
OP(=S)(C1=CC=CC=C1)C1=CC=CC=C1,di-phenyl-thiophosphoric acid,1.88,Log unit,OP(=S)(c1ccccc1)c1ccccc1,,25,?C
CCC(C)OP(C)(O)=S,isobutoxy-methyl-thiophosphoric acid,1.81,Log unit,OP(=S)(C)OC(C)CC,,25,?C
CCCOP(C)(O)=S,methyl-n-propyl-thiophosphoric acid,1.87,Log unit,OP(=S)(C)OCCC,,25,?C
CCOP(O)(=S)CC,ethyl-ethoxy-thiophosphoric acid,1.88,Log unit,OP(=S)(CC)OCC,,25,?C
CCCCOP(C)(O)=S,butoxy-methyl-thiophosphoric acid,1.95,Log unit,OP(=S)(C)OCCCC,,25,?C
CCCP(O)(=S)OCC,ethoxy-n-propyl-thiophosphoric acid,2,Log unit,OP(=S)(CCC)OCC,,25,?C
CCCCP(O)(=S)OCC,n-butyl-ethoxy-thiophosphoric acid,2.11,Log unit,OP(=S)(CCCC)OCC,,25,?C
CCCCOP(O)(=S)CC,n-butoxy-ethyl-thiophosphoric acid,2.21,Log unit,OP(=S)(CC)OCCCC,,25,?C
CCCCOP(O)(=S)CC(C)C,n-butoxy-isopropyl-thiophosphoric acid,2.2,Log unit,OP(=S)(CC(C)C)OCCCC,,25,?C
CCP(O)(=S)CC,di-ethyl-thiophosphoric acid,2.8,Log unit,OP(=S)(CC)CC,,25,?C
CCCP(O)(=S)CCC,di-propyl-thiophosphoric acid,2.83,Log unit,OP(=S)(CCC)CCC,,25,?C
CCCCP(O)(=S)CCCC,di-butyl-thiophosphoric acid,2.91,Log unit,OP(=S)(CCCC)CCCC,,25,?C
CCC(C)P(O)(=S)C(C)CC,di-isobutyl-thiophosphoric acid,3.17,Log unit,OP(=S)(C(C)CC)C(C)CC,,25,?C
CC(C)P(O)(=S)C(C)C,di-ispropyl-thiophosphoric acid,3.03,Log unit,OP(=S)(C(C)C)C(C)C,,25,?C
CC(C)CP(O)(=S)CC(C)C,di-sec-butyl-thiophosphoric acid,3.1,Log unit,OP(=S)(CC(C)C)CC(C)C,,25,?C
OC1=CC=C(C([O-])=O)C(O)=C1,"2,4-dihydroxy-benzoic acid",9.12,Log unit,Oc1ccc(C(=O)[O-])c(c1)O,oh,25,?C
OC1=CC(=CC(O)=C1[O-])C([O-])=O,gallic acid,12.7,Log unit,Oc1cc(cc(c1[O-])O)C(=O)[O-],oh,25,?C
[NH3+]C(CC1=CC=C(O)C(O)=C1)C([O-])=O,"3,4-Dihydroxyphenylalanine",8.7,Log unit,Oc1ccc(CC([NH3+])C(=O)[O-])cc1O,oh,25,?C
OC(=O)C1=CC(Cl)=C(O)C(Cl)=C1,"3,5-Dichloro-4-hydroxy-benzoic acid",5.97,Log unit,Oc1c(Cl)cc(cc1Cl)C(=O)O,oh,25,?C
OC(=O)C1=CC=C(O)C(Cl)=C1,3-chloro-4-hydroxy-benzoic acid,7.52,Log unit,Oc1c(Cl)cc(cc1)C(=O)O,oh,25,?C
OO,hydroperoxide,11.9,Log unit,OO,oh,25,?C
OCCO,"1,2-ethanediol",15.55,Log unit,OCCO,oh,25,?C
ON=CC=NO,Ethanedial dioxime,9.075001,Log unit,ON=CC=NO,oh,25,?C
ONC(=O)C(=O)NO,ethanedihydroxamic acid,6.935,Log unit,ONC(=O)C(=O)NO,oh,25,?C
ONC(=O)C(=O)NO,ethanedihydroximic acid,6.81,Log unit,ONC(=O)C(=O)NO,oh,25,?C
CC(O)CO,"1,2-propanediol",15.1,Log unit,OC(CO)C,oh,25,?C
OCCCO,"1,3-PROPANEDIOL",15.4,Log unit,OCCCO,oh,25,?C
OCC(O)CO,"1,2,3-Propanetriol",14.7,Log unit,OCC(CO)O,oh,25,?C
OCCCCO,"1,4-BUTANEDIOL",15.4,Log unit,OCCCCO,oh,25,?C
OC1=CC=CC=C1O,Pyrocatechine,9.4,Log unit,Oc1ccccc1O,oh,25,?C
OC1=CC(O)=CC=C1,Resorcinol,10.1,Log unit,Oc1cccc(c1)O,oh,25,?C
OC1=CC=C(O)C=C1,Hydroquinone,10.2,Log unit,Oc1ccc(cc1)O,oh,25,?C
CC1=C(C)C(O)=C(C)C(C)=C1O,Durohydroquinone,11.55,Log unit,Oc1c(c(c(O)c(c1C)C)C)C,oh,25,?C
OC1=CC=C(O)C2=CC=CC=C12,"1,4-Naphthohydroquinone",9.77,Log unit,Oc1c2ccccc2c(cc1)O,oh,25,?C
OC1=CC(O)=CC(O)=C1,Phloroglucinol,9.41,Log unit,Oc1cc(cc(c1)O)O,oh,25,?C
OC1=CC=C(Cl)C=C1CC1=CC(Cl)=CC=C1O,"2,2'-methylene-bis-(4-chlorophenol)",7.9,Log unit,Oc1ccc(Cl)cc1Cc1cc(Cl)ccc1O,oh,25,?C
OCC1=CC(CO)=C(O)C(CO)=C1,"2,4,6-trimethylolphenol",9.56,Log unit,Oc1c(cc(CO)cc1CO)CO,oh,25,?C
CC1=CC(CO)=C(O)C=C1,2-methylol-4-methyl-phenol,10.15,Log unit,Oc1ccc(cc1CO)C,oh,25,?C
COC(=O)C1=CC(O)=CC(O)=C1,"3,5-dihydroxybenzoate-methyl",9.01,Log unit,Oc1cc(C(=O)OC)cc(c1)O,oh,25,?C
OCC1=CC=C(O)C(CO)=C1,"2,4-dimethylolphenol",9.77,Log unit,Oc1ccc(CO)cc1CO,oh,25,?C
CC1=CC(CO)=C(O)C(CO)=C1,"2,6-Dimethylol-4-methylphenol",9.92,Log unit,Oc1c(cc(C)cc1CO)CO,oh,25,?C
COC1=C(O)C(CO)=CC=C1,2-Hydroxymethyl-6-methoxy-phenol,9.97,Log unit,Oc1c(cccc1CO)OC,oh,25,?C
OC1=CC=CC=C1CC1=CC=CC=C1O,2-(2-hydroxybenzyl)-phenol,7.8,Log unit,Oc1ccccc1Cc1ccccc1O,oh,25,?C
OC1=C(Cl)C(=O)C(O)=C(Cl)C1=O,chloroanilic acid,3.5,Log unit,OC1=C(Cl)C(=O)C(=C(C1=O)Cl)O,oh,25,?C
OC1=C(C(=O)C(O)=C(C1=O)N(=O)=O)N(=O)=O,"2,5-dihydroxy-3,6-dinitrobenzoquinone",-2.7,Log unit,OC1=C(C(=O)C(=C(C1=O)N(=O)=O)O)N(=O)=O,oh,25,?C
OC1=NC2=NC(O)=NC3=NC(O)=NC(=N1)N23,cyamelic acid,2.5,Log unit,Oc1nc2nc(nc3n2c(n1)nc(O)n3)O,oh,25,?C
OC1=CC=C(O)C2=C1C(=O)C1=CC=CC=C1C2=O,"1,4-Dihydroxyanthraquinone",10.2,Log unit,Oc1ccc(O)c2C(=O)c3ccccc3C(=O)c12,oh,25,?C
OC1=CC=CC2=C1C(=O)C1=CC=CC(O)=C1C2=O,"1,5-DIHYDROXYANTHRAQUINONE",9.8,Log unit,Oc1c2C(=O)c3cccc(O)c3C(=O)c2ccc1,oh,25,?C
OC1=CC=CC2=C1C(=O)C1=C(O)C=CC=C1C2=O,"1,8-Dihydroxyanthraquinone",8.6,Log unit,Oc1cccc2C(=O)c3cccc(O)c3C(=O)c12,oh,25,?C
OC1=CC2=C(C=C1)C(=O)C1=CC(O)=CC=C1C2=O,"2,6-Dihydroxyanthraquinone",6.55,Log unit,Oc1cc2C(=O)c3ccc(cc3C(=O)c2cc1)O,oh,25,?C
[O-]C(=O)CNCCNCC([O-])=O,"ethylenediamine-N,N-diacetic acid",9.16,Log unit,N(CCNCC(=O)[O-])CC(=O)[O-],nr2,25,?C
C[NH+](C)CCN(CC([O-])=O)CC([O-])=O,ethylenediamine-N-dimethyl-N'-diacetic acid,5.9,Log unit,N(CC(=O)[O-])(CC(=O)[O-])CC[NH+](C)C,nr2,25,?C
[O-]C(=O)CCN(CC[NH+](CCC([O-])=O)CC([O-])=O)CC([O-])=O,"ethylenediamine-N,N'-dipropionic acid-N,N'-diacetic acid",6.3,Log unit,N(CC(=O)[O-])(CCC(=O)[O-])CC[NH+](CC(=O)[O-])CCC(=O)[O-],nr2,25,?C
[O-]C(=O)CCN(CCN(CCC([O-])=O)CC([O-])=O)CC([O-])=O,"ethylenediamine-N,N'-dipropionic acid-N,N'-diacetic acid",9.53,Log unit,N(CCN(CC(=O)[O-])CCC(=O)[O-])(CC(=O)[O-])CCC(=O)[O-],nr2,25,?C
[O-]C(=O)CCNCCNCCC([O-])=O,"ethylenediamine-N,N'-dipropionic acid",9.9,Log unit,N(CCC(=O)[O-])CCNCCC(=O)[O-],nr2,25,?C
NC1=C(O)C(=CC(=C1)N(=O)=O)N(=O)=O,"2-amino-4,6-dinitro-phenol",1,Log unit,N(=O)(=O)c1cc(c(O)c(c1)N(=O)=O)N,nr2,25,?C
[NH3+]C(S)S,aminomethanedithioic acid,2.95,Log unit,SC(S)[NH3+],sh,25,?C
SCCS,"1,2-ETHANEDITHIOL",9.3,Log unit,SCCS,sh,25,?C
[O-]S(=O)(=O)C(CS)CS,"1,3-dimercapto-2-propansulfonic acid",9.04,Log unit,SCC(S(=O)(=O)[O-])CS,sh,25,?C
CC(C(C)C(O)=O)C(O)=O,"rac-alpha,alpha'-dimethylpyrotartaric acid",4.1,Log unit,OC(=O)C(C(C(=O)O)C)C,co2h,25,?C
CCC(C(CC)C(O)=O)C(O)=O,"rac-alpha,alpha'-diethylprotartaric acid",3.785,Log unit,OC(=O)C(C(C(=O)O)CC)CC,co2h,25,?C
[O-]C(=O)CNCCNCC([O-])=O,"ethylenediamine-N,N-diacetic acid",9.16,Log unit,N(CC(=O)[O-])CCNCC(=O)[O-],nr2,25,?C
[O-]C(=O)CCN(CCN(CCC([O-])=O)CC([O-])=O)CC([O-])=O,"ethylenediamine-N,N'-dipropionic acid-N,N'-diacetic acid",9.53,Log unit,N(CC(=O)[O-])(CCC(=O)[O-])CCN(CC(=O)[O-])CCC(=O)[O-],nr2,25,?C
CC(O)CO,"1,2-propanediol",15.1,Log unit,OCC(O)C,oh,25,?C
OCC(O)CO,"1,2,3-Propanetriol",14.7,Log unit,OCC(O)CO,oh,25,?C
OC1=CC=CC2=C1C(=O)C1=CC=CC(O)=C1C2=O,"1,5-DIHYDROXYANTHRAQUINONE",9.8,Log unit,Oc1cccc2C(=O)c3c(O)cccc3C(=O)c12,oh,25,?C
CN,amino-methane,10.6385,Log unit,NC,nr2,25,?C
CON,O-aminohydroxy-methane,4.6,Log unit,NOC,nr2,25,?C
CN(C)Cl,N-chloro-N-methylaminomethane,0.46,Log unit,N(Cl)(C)C,nr2,25,?C
O[As](O)(=O)C(F)(F)F,trifluoromethylarsonic acid,1.4,Log unit,O[As](=O)(C(F)(F)F)O,,25,?C
O[As]([O-])(=O)C(F)(F)F,trifluoromethylarsonic acid,5.2,Log unit,O[As](=O)(C(F)(F)F)[O-],,25,?C
C[As](O)(O)=O,Methylarsonic acid,3.91,Log unit,O[As](=O)(O)C,,25,?C
C[As](O)([O-])=O,Methylarsonic acid,8,Log unit,O[As](=O)([O-])C,,25,?C
C[As](C)(O)=O,cacodylic acid,6.27,Log unit,O[As](=O)(C)C,,25,?C
CC[As](O)(O)=O,Ethylarsonic acid,4.19,Log unit,O[As](=O)(O)CC,,25,?C
CC[As](O)([O-])=O,Ethylarsonic acid,8.05,Log unit,O[As](=O)([O-])CC,,25,?C
CCC[As](O)(O)=O,n-Propylarsonic acid,4.51,Log unit,O[As](=O)(O)CCC,,25,?C
CCC[As](O)([O-])=O,n-Propylarsonic acid,8.7,Log unit,O[As](=O)([O-])CCC,,25,?C
CCCC[As](O)(O)=O,n-butylarsonic acid,4.53,Log unit,O[As](=O)(O)CCCC,,25,?C
CCCC[As](O)([O-])=O,n-butylarsonic acid,8.6,Log unit,O[As](=O)([O-])CCCC,,25,?C
CCCCC[As](O)(O)=O,n-pentylarsonic acid,4.44,Log unit,O[As](=O)(O)CCCCC,,25,?C
CCCCC[As](O)([O-])=O,n-pentylarsonic acid,8.7,Log unit,O[As](=O)([O-])CCCCC,,25,?C
CCCCCC[As](O)(O)=O,n-hexylarsonic acid,4.46,Log unit,O[As](=O)(O)CCCCCC,,25,?C
CCCCCC[As](O)([O-])=O,n-hexylarsonic acid,8.9,Log unit,O[As](=O)([O-])CCCCCC,,25,?C
O[As](O)(=O)CCCl,2-chloroethylarsonic acid,4,Log unit,O[As](=O)(CCCl)O,,25,?C
O[As]([O-])(=O)CCCl,2-chloroethylarsonic acid,7.8,Log unit,O[As](=O)(CCCl)[O-],,25,?C
CC(Cl)C[As](O)(O)=O,2-chloro-n-propylarsonic acid,4.1,Log unit,O[As](=O)(CC(Cl)C)O,,25,?C
CC(Cl)C[As](O)([O-])=O,2-chloro-n-propylarsonic acid,8.1,Log unit,O[As](=O)(CC(Cl)C)[O-],,25,?C
O[As](O)(=O)CCCCl,3-chloro-n-propylarsonic acid,3.93,Log unit,O[As](=O)(CCCCl)O,,25,?C
O[As]([O-])(=O)CCCCl,3-chloro-n-propylarsonic acid,8.2,Log unit,O[As](=O)(CCCCl)[O-],,25,?C
CC(Cl)CC[As](O)(O)=O,3-chloro-n-butylarsonic acid,4.2,Log unit,O[As](=O)(CCC(Cl)C)O,,25,?C
CC(Cl)CC[As](O)([O-])=O,3-chloro-n-butylarsonic acid,8.5,Log unit,O[As](=O)(CCC(Cl)C)[O-],,25,?C
CCC(Cl)CC[As](O)(O)=O,3-chloro-n-pentyl-1-arsonic acid,4.01,Log unit,O[As](=O)(CCC(Cl)CC)O,,25,?C
CCC(Cl)CC[As](O)([O-])=O,3-chloro-n-pentyl-1-arsonic acid,8.5,Log unit,O[As](=O)(CCC(Cl)CC)[O-],,25,?C
CCCC(Cl)CC[As](O)(O)=O,3-chloro-n-hexyl-1-arsonic acid,3.8,Log unit,O[As](=O)(CCC(Cl)CCC)O,,25,?C
CCCC(Cl)CC[As](O)([O-])=O,3-chloro-n-hexyl-1-arsonic acid,8,Log unit,O[As](=O)(CCC(Cl)CCC)[O-],,25,?C
OC(=O)C[As](O)(O)=O,arson-acetic acid,3.2,Log unit,O[As](=O)(O)CC(=O)O,,25,?C
OC(=O)C[As](O)([O-])=O,arson-acetic acid,4.7,Log unit,OC(=O)C[As](=O)(O)[O-],,25,?C
OC(=O)CCC[As](O)(O)=O,arson-butyric acid,3.3,Log unit,O[As](=O)(O)CCCC(=O)O,,25,?C
OC(=O)CCC[As](O)([O-])=O,arson-butyric acid,4.9,Log unit,OC(=O)CCC[As](=O)(O)[O-],,25,?C
OC(=O)CCCC[As](O)(O)=O,arson-valeric acid,3.96,Log unit,O[As](=O)(O)CCCCC(=O)O,,25,?C
OC(=O)CCCC[As](O)([O-])=O,arson-valeric acid,4.88,Log unit,OC(=O)CCCC[As](=O)(O)[O-],,25,?C
OC(=O)C(=C)[As](O)(O)=O,alpha-arson-acrylic acid,3.3,Log unit,O[As](=O)(O)C(=C)C(=O)O,,25,?C
OC(=O)C(=C)[As](O)([O-])=O,alpha-arson-acrylic acid,4.23,Log unit,OC(=O)C(=C)[As](=O)(O)[O-],,25,?C
O[As]([O-])(=O)C(=C)C([O-])=O,alpha-arson-acrylic acid,8.3,Log unit,O[As](=O)([O-])C(=C)C(=O)[O-],,25,?C
CC=C(C(O)=O)[As](O)(O)=O,alpha-arson-crotonic acid,3.65,Log unit,O[As](=O)(O)C(=CC)C(=O)O,,25,?C
CC=C(C(O)=O)[As](O)([O-])=O,alpha-arson-crotonic acid,4.6,Log unit,OC(=O)C(=CC)[As](=O)(O)[O-],,25,?C
CC=C(C([O-])=O)[As](O)([O-])=O,alpha-arson-crotonic acid,8.45,Log unit,O[As](=O)([O-])C(=CC)C(=O)[O-],,25,?C
CC(=CC(O)=O)[As](O)(O)=O,beta-arson-crotonic acid,3.5,Log unit,O[As](=O)(O)C(=CC(=O)O)C,,25,?C
CC(=CC(O)=O)[As](O)([O-])=O,beta-arson-crotonic acid,4,Log unit,OC(=O)C=C([As](=O)(O)[O-])C,,25,?C
CC(=CC([O-])=O)[As](O)([O-])=O,beta-arson-crotonic acid,8.5,Log unit,O[As](=O)([O-])C(=CC(=O)[O-])C,,25,?C
O[As](O)(=O)C1=CC=CC=C1,phenyl-arsonic acid,3.9,Log unit,O[As](=O)(O)c1ccccc1,,25,?C
O[As]([O-])(=O)C1=CC=CC=C1,phenyl-arsonic acid,8.18,Log unit,O[As](=O)([O-])c1ccccc1,,25,?C
O[As](O)(=O)C1=CC=CC2=C1C=CC=C2,alpa-naphthylarsonic acid,3.96,Log unit,O[As](=O)(O)c1cccc2c1cccc2,,25,?C
O[As]([O-])(=O)C1=CC=CC2=C1C=CC=C2,alpa-naphthylarsonic acid,8.18,Log unit,O[As](=O)([O-])c1cccc2c1cccc2,,25,?C
O[As]([O-])(=O)C1=CC2=C(C=CC=C2)C=C1,beta-naphthylarsonic acid,8.13,Log unit,O[As](=O)(c1cc2ccccc2cc1)[O-],,25,?C
CC1=CC=CC=C1[As](O)(O)=O,o-tolylarsonic acid,3.9,Log unit,O[As](=O)(O)c1ccccc1C,,25,?C
CC1=CC=CC=C1[As](O)([O-])=O,o-tolylarsonic acid,8.55,Log unit,O[As](=O)([O-])c1ccccc1C,,25,?C
CC1=CC(=CC=C1)[As](O)(O)=O,m-Tolylarsonic acid,4.12,Log unit,O[As](=O)(O)c1cccc(c1)C,,25,?C
CC1=CC(=CC=C1)[As](O)([O-])=O,m-Tolylarsonic acid,8.3,Log unit,O[As](=O)([O-])c1cccc(c1)C,,25,?C
CC1=CC=C(C=C1)[As](O)(O)=O,p-Tolylarsonic acid,4,Log unit,O[As](=O)(O)c1ccc(C)cc1,,25,?C
CC1=CC=C(C=C1)[As](O)([O-])=O,p-Tolylarsonic acid,8.47,Log unit,O[As](=O)([O-])c1ccc(C)cc1,,25,?C
O[As](O)(=O)C1=CC=CC=C1N(=O)=O,o-nitrophenylarsonic acid,3.67,Log unit,O[As](=O)(O)c1ccccc1N(=O)=O,,25,?C
O[As]([O-])(=O)C1=CC=CC=C1N(=O)=O,o-nitrophenylarsonic acid,8.2,Log unit,O[As](=O)([O-])c1ccccc1N(=O)=O,,25,?C
O[As](O)(=O)C1=CC=CC(=C1)N(=O)=O,m-Nitrophenylarsonic acid,3.71,Log unit,O[As](=O)(O)c1cccc(c1)N(=O)=O,,25,?C
O[As]([O-])(=O)C1=CC=CC(=C1)N(=O)=O,m-Nitrophenylarsonic acid,7.5,Log unit,O[As](=O)([O-])c1cccc(c1)N(=O)=O,,25,?C
O[As](O)(=O)C1=CC=C(C=C1)N(=O)=O,p-Nitrophenylarsonic acid,3.3,Log unit,O[As](=O)(O)c1ccc(N(=O)=O)cc1,,25,?C
O[As]([O-])(=O)C1=CC=C(C=C1)N(=O)=O,p-Nitrophenylarsonic acid,7.5,Log unit,O[As](=O)([O-])c1ccc(N(=O)=O)cc1,,25,?C
NC1=C(C=CC=C1)[As](O)([O-])=O,o-Aminophenylarsonic acid,4.1,Log unit,Nc1c([As](=O)(O)[O-])cccc1,,25,?C
NC1=C(C=CC=C1)[As](O)([O-])=O,o-Aminophenylarsonic acid,8.35,Log unit,O[As](=O)([O-])c1c(N)cccc1,,25,?C
NC1=CC(=CC=C1)[As](O)(O)=O,m-aminophenylarsonic acid,4.35,Log unit,O[As](=O)(O)c1cccc(c1)N,,25,?C
NC1=CC(=CC=C1)[As](O)([O-])=O,m-aminophenylarsonic acid,8.32,Log unit,O[As](=O)([O-])c1cccc(c1)N,,25,?C
NC1=CC=C(C=C1)[As](O)([O-])=O,p-Aminophenylarsonic acid,4.4,Log unit,Nc1ccc([As](=O)(O)[O-])cc1,,25,?C
NC1=CC=C(C=C1)[As](O)([O-])=O,p-Aminophenylarsonic acid,8.6,Log unit,O[As](=O)([O-])c1ccc(N)cc1,,25,?C
NC1=CC=C(C2=C1C=CC=C2)[As](O)([O-])=O,p-aminonapthylarsonic acid,8.9,Log unit,O[As](=O)([O-])c1ccc(N)c2ccccc12,,25,?C
O[As](O)(=O)C1=CC=C(Cl)C=C1,p-Chlorophenylarsonic acid,3.6,Log unit,O[As](=O)(c1ccc(Cl)cc1)O,,25,?C
O[As]([O-])(=O)C1=CC=C(Cl)C=C1,p-Chlorophenylarsonic acid,7.9,Log unit,O[As](=O)(c1ccc(Cl)cc1)[O-],,25,?C
O[As](O)(=O)C1=CC=C(Br)C=C1,p-bromophenylarsonic acid,3.85,Log unit,O[As](=O)(c1ccc(Br)cc1)O,,25,?C
O[As]([O-])(=O)C1=CC=C(Br)C=C1,p-bromophenylarsonic acid,7.9,Log unit,O[As](=O)(c1ccc(Br)cc1)[O-],,25,?C
O[As]([O-])(=O)C1=CC=C(I)C=C1,p-iodophenylarsonic acid,7.94,Log unit,O[As](=O)(c1ccc(I)cc1)[O-],,25,?C
OC(=O)C1=CC=C(C=C1)[As](O)(O)=O,benzoic acid-4-arsonic acid,3.15,Log unit,O[As](=O)(O)c1ccc(C(=O)O)cc1,,25,?C
OC(=O)C1=CC=C(C=C1)[As](O)([O-])=O,benzoic acid-4-arsonic acid,4.2,Log unit,OC(=O)c1ccc([As](=O)(O)[O-])cc1,,25,?C
O[As]([O-])(=O)C1=CC=C(C=C1)C([O-])=O,benzoic acid-4-arsonic acid,8.39,Log unit,O[As](=O)([O-])c1ccc(C(=O)[O-])cc1,,25,?C
OC1=CC=C(C=C1)[As](O)(O)=O,p-Hydroxyphenylarsonic acid,4.2,Log unit,O[As](=O)(O)c1ccc(O)cc1,,25,?C
OC1=CC=C(C=C1)[As](O)([O-])=O,p-Hydroxyphenylarsonic acid,8.3,Log unit,O[As](=O)([O-])c1ccc(O)cc1,,25,?C
OC1=CC=C(C=C1)[As]([O-])([O-])=O,p-Hydroxyphenylarsonic acid,10.05,Log unit,Oc1ccc([As](=O)([O-])[O-])cc1,,25,?C
O[As](O)(=O)C1=CC=C(Cl)C=C1Cl,"2,4-dichlorophenylarsonic acid",3.44,Log unit,O[As](=O)(c1c(Cl)cc(Cl)cc1)O,,25,?C
CC(=O)NC1=CC=C(C=C1)[As](O)(O)=O,p-acetylaminophenylarsonic acid,4,Log unit,O[As](=O)(O)c1ccc(NC(=O)C)cc1,,25,?C
CC(=O)NC1=CC=C(C=C1)[As](O)([O-])=O,p-acetylaminophenylarsonic acid,8.3,Log unit,O[As](=O)([O-])c1ccc(NC(=O)C)cc1,,25,?C
OC1=CC=C(C=C1)N=NC1=CC=C(C=C1)[As](O)([O-])=O,4-(4-hydrxyphenylazo)phenylarsonic acid,7.6,Log unit,O[As](=O)(c1ccc(cc1)N=Nc1ccc(O)cc1)[O-],,25,?C
O[Se](=O)(=O)C1=CC=CC=C1,phenylselenoic acid,4.79,Log unit,O[Se](=O)(=O)c1ccccc1,,25,?C
CC1=CC(=CC=C1)[Se](O)(=O)=O,m-tolylselonoic acid,4.8,Log unit,O[Se](=O)(=O)c1cccc(c1)C,,25,?C
CC1=CC=C(C=C1)[Se](O)(=O)=O,p-tolylselenoic acid,4.88,Log unit,O[Se](=O)(=O)c1ccc(C)cc1,,25,?C
O[Se](=O)(=O)C1=CC(F)=CC=C1,m-fluorophenylselenoic acid,4.34,Log unit,O[Se](=O)(=O)c1cc(F)ccc1,,25,?C
O[Se](=O)(=O)C1=CC=C(F)C=C1,p-fluorophenylselenoic acid,4.5,Log unit,O[Se](=O)(=O)c1ccc(F)cc1,,25,?C
O[Se](=O)(=O)C1=CC(Cl)=CC=C1,m-chlorophenylselenoic acid,4.47,Log unit,O[Se](=O)(=O)c1cc(Cl)ccc1,,25,?C
O[Se](=O)(=O)C1=CC=C(Cl)C=C1,p-chlorophenylselenoic acid,4.48,Log unit,O[Se](=O)(=O)c1ccc(Cl)cc1,,25,?C
O[Se](=O)(=O)C1=CC(Br)=CC=C1,m-bromophenylselenoic acid,4.43,Log unit,O[Se](=O)(=O)c1cc(Br)ccc1,,25,?C
O[Se](=O)(=O)C1=CC=C(Br)C=C1,p-bromophenylarsonic acid,4.5,Log unit,O[Se](=O)(=O)c1ccc(Br)cc1,,25,?C
COC1=CC(=CC=C1)[Se](O)(=O)=O,m-methoxyphenylselenoic acid,4.65,Log unit,O[Se](=O)(=O)c1cccc(c1)OC,,25,?C
COC1=CC=C(C=C1)[Se](O)(=O)=O,p-methoxyphenylselenoic acid,5.05,Log unit,O[Se](=O)(=O)c1ccc(OC)cc1,,25,?C
O[Se](=O)(=O)C1=CC=CC(=C1)N(=O)=O,m-nitrophenylselenoic acid,4.07,Log unit,O[Se](=O)(=O)c1cccc(c1)N(=O)=O,,25,?C
O[Se](=O)(=O)C1=CC=C(C=C1)N(=O)=O,p-nitrophenylselenoic acid,4,Log unit,O[Se](=O)(=O)c1ccc(N(=O)=O)cc1,,25,?C
O[Se](=O)(=O)C1=CC=CC=C1C1=CC=CC=C1,2-biphenylselenoic acid,4.67,Log unit,O[Se](=O)(=O)c1ccccc1c1ccccc1,,25,?C
O[Se](=O)(=O)C1=CC=CC(=C1)C1=CC=CC=C1,3-biphenylselenoic acid,4.87,Log unit,O[Se](=O)(=O)c1cccc(c1)c1ccccc1,,25,?C
O[Se](=O)(=O)C1=CC=C(C=C1)C1=CC=CC=C1,4-biphenylselenoic acid,4.53,Log unit,O[Se](=O)(=O)c1ccc(c2ccccc2)cc1,,25,?C
O[Se](=O)(=O)C1=CC=C(OC2=CC=CC=C2)C=C1,p-phenoxyphenylselenoic acid,4.88,Log unit,O[Se](=O)(=O)c1ccc(Oc2ccccc2)cc1,,25,?C
OB(O)O,BORIC ACID,9.14,Log unit,O[B](O)O,,25,?C
NC1=CC=CC=C1B(O)O,o-aminophenylboric acid,4.57,Log unit,Nc1c([B](O)O)cccc1,,25,?C
OP([O-])(=O)CCCNC1=CC=CC=C1,3-phenylamino-n-propyl-phosphonic acid,7.15,Log unit,OP(=O)(CCCNc1ccccc1)[O-],,25,?C
OP(O)(=O)C1=CC=CC=C1,PHENYLPHOSPHONIC ACID,2.015,Log unit,OP(=O)(O)c1ccccc1,,25,?C
OP([O-])(=O)C1=CC=CC=C1,PHENYLPHOSPHONIC ACID,7.07,Log unit,OP(=O)([O-])c1ccccc1,,25,?C
CC1=CC=CC=C1P(O)(O)=O,o-tolylphosphonic acid,2.1,Log unit,OP(=O)(O)c1ccccc1C,,25,?C
CC1=CC=CC=C1P(O)([O-])=O,o-tolylphosphonic acid,7.68,Log unit,OP(=O)([O-])c1ccccc1C,,25,?C
CC1=CC(=CC=C1)P(O)(O)=O,m-tolylphosphonic acid,1.88,Log unit,OP(=O)(O)c1cccc(c1)C,,25,?C
CC1=CC(=CC=C1)P(O)([O-])=O,m-tolylphosphonic acid,7.44,Log unit,OP(=O)([O-])c1cccc(c1)C,,25,?C
OP([O-])(=O)C1=CC=CC=C1C1=CC=CC=C1,2-biphenylphosphonic acid,8.13,Log unit,OP(=O)(c1ccccc1c1ccccc1)[O-],,25,?C
CC1=CC=C(C=C1)P(O)(O)=O,p-tolylphosphonic acid,1.81,Log unit,OP(=O)(O)c1ccc(C)cc1,,25,?C
CC1=CC=C(C=C1)P(O)([O-])=O,p-tolylphosphonic acid,7.33,Log unit,OP(=O)([O-])c1ccc(C)cc1,,25,?C
OP(O)(=O)C1=CC=CC=C1F,o-fluorophenylphosphonic acid,1.64,Log unit,OP(=O)(O)c1ccccc1F,,25,?C
OP([O-])(=O)C1=CC=CC=C1F,o-fluorophenylphosphonic acid,6.8,Log unit,OP(=O)([O-])c1ccccc1F,,25,?C
OP(O)(=O)C1=CC=CC=C1Cl,o-chlorophenylphosphonic acid,1.63,Log unit,OP(=O)(c1c(Cl)cccc1)O,,25,?C