Smiles,Name,pKa,pKa Unit,Ionizable center smiles,IC group,Temperature,Temperature Unit
CCCCN=C(N)NC(N)=[NH2+],butyl-diguanide,2.92,Log unit,C(=NCCCC)(NC(=[NH2+])N)N,neth,25,?C
NC(=[NH2+])NC(=N)NC1=CC=C(Cl)C=C1,N1-(4-chlrophenyl)-diguanide,2.2,Log unit,C(=N)(NC(=[NH2+])N)Nc1ccc(Cl)cc1,neth,25,?C
CC(C)NC(=N)NC(N)=NC1=CC=C(Cl)C=C1,N2-(4-chlrophenyl)-N5-isopropyl-diguanide,10.4,Log unit,C(=Nc1ccc(Cl)cc1)(N)NC(=N)NC(C)C,neth,25,?C
CC(C)NC(=[NH2+])NC(N)=NC1=CC=C(Cl)C=C1,N2-(4-chlrophenyl)-N5-isopropyl-diguanide,2.3,Log unit,C(=Nc1ccc(Cl)cc1)(N)NC(=[NH2+])NC(C)C,neth,25,?C
CC(C)NC(=[NH2+])NC(=N)N(C)C1=CC=CC=C1,N1-(4-chlrophenyl)-N5-isopropyl-N1-methyl-diguanide,2.4,Log unit,C(=N)(N(c1ccccc1)C)NC(=[NH2+])NC(C)C,neth,25,?C
CN=C(NC(=N)NC(C)C)NC1=CC=CC=C1,N1-(4-chlrophenyl)-N5-isopropyl-N2-methyl-diguanide,11.8,Log unit,C(=NC)(Nc1ccccc1)NC(=N)NC(C)C,neth,25,?C
CN=C(NC(=[NH2+])NC(C)C)NC1=CC=CC=C1,N1-(4-chlrophenyl)-N5-isopropyl-N2-methyl-diguanide,2.3,Log unit,C(=NC)(Nc1ccccc1)NC(=[NH2+])NC(C)C,neth,25,?C
C[NH+]=C(NC(C)C)NC(=N)NC1=CC=CC=C1,N1-(4-chlrophenyl)-N5-isopropyl-N4-methyl-diguanide,2,Log unit,C(=N)(Nc1ccccc1)NC(=[NH+]C)NC(C)C,neth,25,?C
CN=C(NC(C)C)NC(=N)NC1=CC=CC=C1,N1-(4-chlrophenyl)-N5-isopropyl-N4-methyl-diguanide,12.2,Log unit,C(=N)(Nc1ccccc1)NC(=NC)NC(C)C,neth,25,?C
NC(=N)NC(N)=NC1CCCCC1,cyclohexyl-diguanide,11.39,Log unit,C(=N)(N)NC(=NC1CCCCC1)N,neth,25,?C
NC(=[NH2+])NC(N)=NC1CCCCC1,cyclohexyl-diguanide,3.2,Log unit,C(=NC1CCCCC1)(NC(=[NH2+])N)N,neth,25,?C
CCN(CC)C(=N)NC(N)=N,N'-diethyl-diguanide,11.66,Log unit,C(=N)(N)NC(=N)N(CC)CC,neth,25,?C
NC(=N)NC(=N)NCCNC(=N)NC(N)=N,N-(diguanidoethylene)-diguanide,11.5,Log unit,C(=N)(N)NC(=N)NCCNC(=N)NC(=N)N,neth,25,?C
NC(=[NH2+])NC(=N)NCCNC(=N)NC(N)=[NH2+],N-(diguanidoethylene)-diguanide,2.6,Log unit,C(=N)(NC(=[NH2+])N)NCCNC(=N)NC(=[NH2+])N,neth,25,?C
CN(C)C(=N)NC(N)=N,N'-dimethyl-diguanide,11.52,Log unit,C(=N)(N)NC(=N)N(C)C,neth,25,?C
CN(C)C(=N)NC(N)=[NH2+],N'-dimethyl-diguanide,2.75,Log unit,C(=N)(NC(=[NH2+])N)N(C)C,neth,25,?C
CCN=C(N)NC(N)=N,N'-ethyl-diguanide,11.47,Log unit,C(=N)(N)NC(=NCC)N,neth,25,?C
CCN=C(N)NC(N)=[NH2+],N'-ethyl-diguanide,3.08,Log unit,C(=NCC)(NC(=[NH2+])N)N,neth,25,?C
CCCCCCN=C(N)NC(N)=N,hexyl-diguanide,11.44,Log unit,C(=N)(N)NC(=NCCCCCC)N,neth,25,?C
CCCCCCN=C(N)NC(N)=[NH2+],cyclohexyl-diguanide,3.3,Log unit,C(=NCCCCCC)(NC(=[NH2+])N)N,neth,25,?C
CC(C)NC(=N)NC(=N)NC1=CC=C(I)C=C1,N1-(4-Iodophenyl)-N5-isopropyl-diguanide,11,Log unit,C(=N)(Nc1ccc(I)cc1)NC(=N)NC(C)C,neth,25,?C
CC(C)N=C(N)NC(N)=N,isoprpyl-diguanide,11.35,Log unit,C(=N)(N)NC(=NC(C)C)N,neth,25,?C
CC(C)N=C(N)NC(N)=[NH2+],isoprpyl-diguanide,3.1,Log unit,C(=NC(C)C)(NC(=[NH2+])N)N,neth,25,?C
CC(C)NC(=N)NC(=N)NC1=CC=CC=C1,N1-isopropyl-(4-Iodophenyl)-N5-diguanide,11.5,Log unit,C(=N)(Nc1ccccc1)NC(=N)NC(C)C,neth,25,?C
CC(C)NC(=[NH2+])NC(=N)NC1=CC=CC=C1,N1-isopropyl-(4-Iodophenyl)-N5-diguanide,1.9,Log unit,C(=N)(Nc1ccccc1)NC(=[NH2+])NC(C)C,neth,25,?C
CN=C(N)NC(N)=N,N'-methyl-diguanide,11.42,Log unit,C(=N)(N)NC(=NC)N,neth,25,?C
CN=C(N)NC(N)=[NH2+],N'-methyl-diguanide,3,Log unit,C(=NC)(NC(=[NH2+])N)N,neth,25,?C
NC(=N)NC(N)=NC1=CC=CC2=C1C=CC=C2,napthyl-diguanide,10.24,Log unit,C(=N)(N)NC(=Nc1cccc2ccccc12)N,neth,25,?C
NC(=N)NC(N)=[NH+]C1=CC=CC2=C1C=CC=C2,napthyl-diguanide,2.04,Log unit,C(=N)(N)NC(=[NH+]c1cccc2ccccc12)N,neth,25,?C
NC(=N)NC(N)=NC1=CC2=C(C=CC=C2)C=C1,2-napthyl-diguanide,10.7,Log unit,c1(cc2ccccc2cc1)N=C(N)NC(=N)N,neth,25,?C
NC(=N)NC(N)=NC1=CC2=C(C=CC=C2)C=C1,2-napthyl-diguanide,10.7,Log unit,C(=N)(NC(=Nc1cc2ccccc2cc1)N)N,neth,25,?C
NC(=[NH2+])NC(=N)NC1=CC=CC=C1,DIGUANIDE,2.1,Log unit,C(=N)(NC(=[NH2+])N)Nc1ccccc1,neth,25,?C
CCCN=C(N)NC(N)=N,propyl-diguanide,11.35,Log unit,C(=N)(N)NC(=NCCC)N,neth,25,?C
CCCN=C(N)NC(N)=[NH2+],isoprpyl-diguanide,3.1,Log unit,C(=NCCC)(NC(=[NH2+])N)N,neth,25,?C
NC(CCC(N)=[NH+]O)=NO,"1,4-diamino-1,4-bishydroxyiminobutane",3.3,Log unit,C(=NO)(CCC(=[NH+]O)N)N,neth,25,?C
NC(N)=N,GUANIDINE,13.9,Log unit,C(=N)(N)N,neth,25,?C
CCC1CCCNC1O,3-ethyl-2-hydroxypiperidine,9.09,Log unit,N1C(O)C(CCC1)CC,nr2,25,?C
CCN1CCCCC1C,1-ETHYL-2-METHYLPIPERIDINE,10.66,Log unit,N1(CCCCC1C)CC,nr2,25,?C
CC1CCCC(C)N1CC(C)(C)O,"1-(2-hydroxy-2-methyl)propyl-cis-2,6-dimethylpiperidine",10.5,Log unit,N1(C(CCCC1C)C)CC(O)(C)C,nr2,25,?C
OC(CN1CCCCC1)CN1CCCCC1,1-(2-hydroxy-3-piperidino)propylpiperidine,9.18,Log unit,N1(CCCCC1)CC(O)CN1CCCCC1,nr2,25,?C
CC(C)CN1CCCCC1,1-isobutylpiperidine,10.44,Log unit,N1(CCCCC1)CC(C)C,nr2,25,?C
CC(C)C1CCCNC1,3-isopropylpiperidine,10.75,Log unit,N1CCCC(C1)C(C)C,nr2,25,?C
CC(C)C1CCNCC1,4-isopropylpiperidine,10.85,Log unit,N1CCC(C(C)C)CC1,nr2,25,?C
CN1CCCCC1,1-Methylpiperidine,10.135,Log unit,N1(CCCCC1)C,nr2,25,?C
CC1CCCCN1,2-METHYLPIPERIDINE,11.015,Log unit,N1CCCCC1C,nr2,25,?C
CC1CCCNC1,3-Methylpiperidine,11.07,Log unit,N1CCCC(C1)C,nr2,25,?C
CN1CCC(CC1)(C1=CC=CC=C1)C1=CC=CC=C1,"1-methyl-4,4-diphenylpiperidine",8.65,Log unit,N1(CCC(c2ccccc2)(CC1)c1ccccc1)C,nr2,25,?C
CC1CCNCC1,4-Methylpiperidine,10.78,Log unit,N1CCC(C)CC1,nr2,25,?C
CC(C=C(C1=CC=CS1)C1=CC=CS1)N1CCCCC1,"1-(1-methyl-3,3-dithienyl)prop-2-enylpiperidine",8.41,Log unit,N1(C(C=C(c2sccc2)c2sccc2)C)CCCCC1,nr2,25,?C
CC(C=C(C1=CC=CS1)C1=CC=CS1)N1CCCC(C)C1,"3-methyl-1-(1-methyl-3,3-dithienyl)prop-2-enylpiperidine",8.23,Log unit,N1(C(C=C(c2sccc2)c2sccc2)C)CC(CCC1)C,nr2,25,?C
CCC1CCN(CC1)C(C)C=C(C1=CC=CS1)C1=CC=CS1,"4-methyl-1-(1-methyl-3,3-dithienyl)prop-2-enylpiperidine",8.15,Log unit,N1(C(C=C(c2sccc2)c2sccc2)C)CCC(CC)CC1,nr2,25,?C
CCC(C)N1CCC(CC1)(C1=CC=CC=C1)C1=CC=CC=C1,1-(1-methylpropyl)-4-4-diphenylpiperidine,9.67,Log unit,N1(CCC(c2ccccc2)(CC1)c1ccccc1)C(CC)C,nr2,25,?C
CN1C(C)(C)CCCC1(C)C,"1,2,2,6,6-Pentamethylpiperidine",11.19,Log unit,N1(C)C(CCCC1(C)C)(C)C,nr2,25,?C
CN1CC(C)(C)CC(C)(C)C1,"1,3,3,5,5-pentamethylpiperidine",9.43,Log unit,N1(CC(CC(C1)(C)C)(C)C)C,nr2,25,?C
C(CN1CCCCC1)N1CCCCC1,1-(2-piperidino)ethylpiperidine,9.17,Log unit,N1(CCCCC1)CCN1CCCCC1,nr2,25,?C
C(C[NH+]1CCCCC1)N1CCCCC1,1-(2-piperidino)ethylpiperidine,6.55,Log unit,[NH+]1(CCCCC1)CCN1CCCCC1,nr2,25,?C
NC1CCCCC1CCCN1CCCCC1,1-(3-piperidino)propylpiperidine,9.95,Log unit,N1(CCCCC1)CCCC1CCCCC1N,nr2,25,?C
C1CCC(NC1)C1CCCCN1,2-(2-piperidyl)piperidine,9.9,Log unit,N1CCCCC1C1NCCCC1,nr2,25,?C
CCCN1CCCCC1,1-n-propylpiperidine,10.41,Log unit,N1(CCCCC1)CCC,nr2,25,?C
CCCC1CCCCN1,2-n-propyl-piperidine,10.9,Log unit,N1CCCCC1CCC,nr2,25,?C
C1CCC([NH2+]C1)C1=CN=CC=C1,2-(3-Pyridyl)piperidine,3.2,Log unit,n1cccc(c1)C1[NH2+]CCCC1,n,25,?C
CC1CCN(C)C(C)(C)C1,"1,2,2,4-tetramethylpiperidine",10.18,Log unit,N1(CCC(CC1(C)C)C)C,nr2,25,?C
CC1CCCC(C)(C)N1C,"1,2,2,6-tetramethylpiperidine",10.7,Log unit,N1(C)C(CCCC1(C)C)C,nr2,25,?C
CC1(C)CCCC(C)(C)N1,"2,2,6,6-Tetramethylpiperidine",11.07,Log unit,N1C(CCCC1(C)C)(C)C,nr2,25,?C
CC1CCCC(C)N1C,"cis-1,2,6-Trimethylpiperidine",10.15,Log unit,N1(C(CCCC1C)C)C,nr2,25,?C
CC1(C)CNCC(C)(C)C1,"3,3,5,5-tetramethylpiperidine",10.1,Log unit,N1CC(CC(C1)(C)C)(C)C,nr2,25,?C
CC1CCN(C)C(C)C1,"1,2,4-trimethylpiperidine",10.23,Log unit,N1(CCC(CC1C)C)C,nr2,25,?C
CN1CCCC(C)(C)C1,"1,3,3-trimethylpiperidine",9.77,Log unit,N1(CCCC(C)(C)C1)C,nr2,25,?C
CC1CC(C)CN(C)C1,"1,3,5-trimethylpiperidine",9.995,Log unit,N1(CC(CC(C1)C)C)C,nr2,25,?C
CC1CCNC(C)(C)C1,"2,2,4-trimethylpiperidine",11.04,Log unit,N1CCC(C)CC1(C)C,nr2,25,?C
CC1CCCC(C)(C)N1,"2,2,6-Trimethylpiperidine",11.21,Log unit,N1C(CCCC1(C)C)C,nr2,25,?C
C1CCNC1,pyrrolidine,11.02,Log unit,N1CCCC1,nr2,25,?C
NCCN1CCCC1,"Pyrrolidine,1-(2-amminoethyl)-",9.7,Log unit,N1(CCCC1)CCN,nr2,25,?C
C(N1CCCCC1)C1=CC=CC=C1,"Pyrrolidine, 1-benzyl-",9.5,Log unit,N1(Cc2ccccc2)CCCCC1,nr2,25,?C
C(C1CCCN1)C1=CC=CC=C1,"Pyrrolidine,2-benzyl-",10.31,Log unit,N1C(Cc2ccccc2)CCC1,nr2,25,?C
CCCCN1CCCC1,"Pyrrolidine,1-n-butyl-",10.4,Log unit,N1(CCCC1)CCCC,nr2,25,?C
CCCCN1CCCC1C,"Pyrrolidine, 1-n-butyl-2-methyl-",10.61,Log unit,N1(CCCC1C)CCCC,nr2,25,?C
CCCCC1CCCN1C,"Pyrrolidine,2-n-butyl-1-methyl-",10.2,Log unit,N1(CCCC1CCCC)C,nr2,25,?C
ClC1=CC=C(CC(=CCN2CCCC2)C2=CC=CC=C2)C=C1,"Pyrrolidine,1-(4-p-chlorophenyl-3-phenyl)but-2-enyl-:",8.77,Log unit,N1(CC=C(Cc2ccc(Cl)cc2)c2ccccc2)CCCC1,nr2,25,?C
N#CCN1CCCC1,"Pyrrolidine, 1-cyanomethyl-",4.8,Log unit,N1(CCCC1)CC#N,nr2,25,?C
C1CCN(C1)C1CCCCC1,"Pyrrolidine, 11-cyclohexyl-",10.7,Log unit,N1(CCCC1)C1CCCCC1,nr2,25,?C
C1CNC(C1)C1CCCCC1,"Pyrrolidine,2-cyclohexyl-",10.76,Log unit,N1CCCC1C1CCCCC1,nr2,25,?C
CC1CCCN1C,"Pyrrolidine,1,2-dimethyl-",10.2,Log unit,N1(CCCC1C)C,nr2,25,?C
CCN1CCCC1N(C)C,"Pyrrolidine,1-(2-dimethylamino)ethyl-",9.439,Log unit,N1(CCCC1N(C)C)CC,nr2,25,?C
CCC1CCCN1,"Pyrrolidine,2-ethyl-",10.6,Log unit,N1CCCC1CC,nr2,25,?C
CCN1CCCC1C,"Pyrrolidine, 1-ethyl-2-methyl",10.56,Log unit,N1(CCCC1C)CC,nr2,25,?C
CCC1CCCN1C,"Pyrolidine,2-ethyl-1-methyl-",9.8,Log unit,N1(CCCC1CC)C,nr2,25,?C
OC(CN1CCCC1)CN1CCCC1,"Pyrrolidine,1(2-hydroxy-3-pyrrolidine-1-yl)propyl-:",9.43,Log unit,N1(CCCC1)CC(O)CN1CCCC1,nr2,25,?C
OC(CN1CCCC1)C[NH+]1CCCC1,"Pyrrolidine,1(2-hydroxy-3-pyrrolidine-1-yl)propyl-:",8.05,Log unit,N1(CCCC1)CC(O)C[NH+]1CCCC1,nr2,25,?C
COC1=CC=C(C=C1)C1CCCN1C,"Pyrrolidine,2-(p-methoxyphenyl)-1-methyl-",8.9,Log unit,N1(C(c2ccc(cc2)OC)CCC1)C,nr2,25,?C
CN1CCCC1,"Pyrrolidine, 1-methyl-",10.39,Log unit,N1(CCCC1)C,nr2,25,?C
CN1CCCC1C1=CC=CC=C1,"Pyrrolidine, 1-methyl-2-phenyl-",8.8,Log unit,N1(C(c2ccccc2)CCC1)C,nr2,25,?C
CCCC1CCCN1C,"Pyrrolidine, 1-methyl-2-n-propyl-",9.8,Log unit,N1(CCCC1CCC)C,nr2,25,?C
CN1CCCC1C1=CN=CC=C1,"Pyrrolidine, 1-methyl-2-(3-pyridy)-:",8.04,Log unit,N1(C(c2cnccc2)CCC1)C,nr2,25,?C
C[NH+]1CCCC1C1=CN=CC=C1,"Pyrrolidine, 1-methyl-2-(3-pyridy)-:",3.4,Log unit,n1cccc(c1)C1[NH+](CCC1)C,n,25,?C
C1CCN(C1)C1=CC=CC=C1,"Pyrrolidine, 1-pheny-",4.3,Log unit,N1(c2ccccc2)CCCC1,nr2,25,?C
C1CNC(C1)C1=CC=CC=C1,"PYRROLIDINE, 2-PHENYL-",9.6,Log unit,N1C(c2ccccc2)CCC1,nr2,25,?C
C(CN1CCCC1)N1CCCC1,"Pyrrolidine, 1-(2-pyrrolidine-1-yl)ethyl-:",9.17,Log unit,N1(CCCC1)CCN1CCCC1,nr2,25,?C
C(CN1CCCC1)CN1CCCC1,"Pyrrolidine, 1-(3-pyrrolidin-1-yl)propyl-",10.04,Log unit,N1(CCCC1)CCCN1CCCC1,nr2,25,?C
C1CNC(C1)C1=CC=CS1,"Pyrrolidine, 2-(2-thienyl)-:",9.35,Log unit,N1C(c2sccc2)CCC1,nr2,25,?C
CC1=CC=C(C=C1)N1CCCC1,"Pyrrolidine, 1-(p-tolyl)-",4.7,Log unit,N1(c2ccc(cc2)C)CCCC1,nr2,25,?C
CC1=CC=C(C=C1)C1CCCN1,"Pyrroolidine, 2-(p-tolyl)",9.95,Log unit,N1CCCC1c1ccc(C)cc1,nr2,25,?C
CC1CN(C)CC1C,"1,3,4-Trimethyl1-1-pyrrolinium perchlorate:",9.6,Log unit,N1(CC(C)C(C1)C)C,nr2,25,?C
[NH3+]CCNCC1=CC=CS1,"Thiophene, 2-(2-aminoethylaminomethyl)-:",6.3,Log unit,N(Cc1sccc1)CC[NH3+],nr2,25,?C
NCC1=CC=CS1,"Thiophene, 2-aminomethyl-",8.92,Log unit,NCc1sccc1,nr2,25,?C
C1COCCN1,Morpholine:,8.315001,Log unit,N1CCOCC1,nr2,25,?C
CC(=O)C(CCN1CCOCC1)(C1=CC=CC=C1)C1=CC=CC=C1,"Morpholine, N-(3-acetyl-3,3-diphenyl)propyl-",6.83,Log unit,N1(CCC(c2ccccc2)(c2ccccc2)C(=O)C)CCOCC1,nr2,25,?C
CC(=O)C(CN1CCOCC1)C1=CC=CC=C1,"Morpholine, N-(2_acetyl-2-phenyl)ethyl-",6.23,Log unit,N1(CC(c2ccccc2)C(=O)C)CCOCC1,nr2,25,?C
C=CCN1CCOCC1,"Morpholine, N-allyl-",7.02,Log unit,N1(CCOCC1)CC=C,nr2,25,?C
[NH3+]CCN1CCOCC1,"Morpholine, N-(2-amino)ethyl-",4.84,Log unit,N1(CCOCC1)CC[NH3+],nr2,25,?C
O=C(CC1=CC=CC=C1)C(CN1CCOCC1)C1=CC=CC=C1,"Morpholine, N-(2-benzylcarbonyl-2-phenyl)ethyl",6.17,Log unit,N1(CC(C(=O)Cc2ccccc2)c2ccccc2)CCOCC1,nr2,25,?C
CC(O)C[NH+](CCCN1CCOCC1)CC(C)O,"Mokrpholine, N-[3-(bis-2-hydroxpropyl)aminopropyl]-",5.5,Log unit,N1(CCOCC1)CCC[NH+](CC(O)C)CC(O)C,nr2,25,?C
N#CC(CCN1CCOCC1)(C1=CC=CC=C1)C1=CC=CC=C1,"Morpholine, N-(3-cyano-3,3-diphenyl)propyl-",6.04,Log unit,N1(CCC(c2ccccc2)(c2ccccc2)C#N)CCOCC1,nr2,25,?C
N#CCN1CCOCC1,"Morpholine, N-cyanomethyl-",2,Log unit,N1(CCOCC1)CC#N,nr2,25,?C
CC(CC(C#N)(C1=CC=CC=C1)C1=CC=CC=C1)N1CCOCC1,"Morpholine, N-(3-cyano-1-methyl-3.3-diphenyl)propyl-",6.05,Log unit,N1(C(CC(c2ccccc2)(c2ccccc2)C#N)C)CCOCC1,nr2,25,?C
O=C(CCN1CCOCC1)C(C1=CC=CC=C1)C1=CC=CC=C1,"Morpholine, N-(2-diphenylmethlcarbonyl)ethyl-",6.39,Log unit,N1(CCC(=O)C(c2ccccc2)c2ccccc2)CCOCC1,nr2,25,?C
C(CN1CCOCC1)C(C1=CC=CC=C1)C1=CC=CC=C1,"Morpholine, N-(3,3-diphenyl)propyl-",7.2,Log unit,N1(CCC(c2ccccc2)c2ccccc2)CCOCC1,nr2,25,?C
CCCC(=O)C(CCN1CCOCC1)(C1=CC=CC=C1)C1=CC=CC=C1,"Morpholine, N-(3,3-diphenyl-3-propylcarbonyl)propyl-",7.17,Log unit,N1(CCC(c2ccccc2)(c2ccccc2)C(=O)CCC)CCOCC1,nr2,25,?C
CCN1CCOCC1,"Morpholine, N-ethyl-",7.67,Log unit,N1(CCOCC1)CC,nr2,25,?C
CCC(=O)C(CCN1CCOCC1)(C1=CC=CC=C1)C1=CC=CC=C1,"Morpholine, N-(3-ethylcarbonyl-3,3-diphenyl)propyl-",6.95,Log unit,N1(CCOCC1)CCC(C(=O)CC)(c1ccccc1)c1ccccc1,nr2,25,?C
CCC(=O)C(CC(C)N1CCOCC1)(C1=CC=CC=C1)C1=CC=CC=C1,"Morpholine, N-(3-ethylcarbonyl-1-methyl-3,3-diphenyl)propyl-",6.68,Log unit,N1(C(CC(c2ccccc2)(c2ccccc2)C(=O)CC)C)CCOCC1,nr2,25,?C
CCC(=O)C(C(C)CN1CCOCC1)(C1=CC=CC=C1)C1=CC=CC=C1,"Morpholine, N-(3-ethylcarbonyl-2-methyl-3,3-dipheyl)propyl-",7.12,Log unit,N1(CC(C(c2ccccc2)(c2ccccc2)C(=O)CC)C)CCOCC1,nr2,25,?C
OC(CN1CCOCC1)CN1CCOCC1,"Morpholine, N-(2-hydroxy-3-morpholin)propyl-:",6.68,Log unit,N1(CCOCC1)CC(O)CN1CCOCC1,nr2,25,?C
OC(CN1CCOCC1)C[NH+]1CCOCC1,"Morpholine, N-(2-hydroxy-3-morpholin)propyl-:",5.3,Log unit,N1(CCOCC1)CC(O)C[NH+]1CCOCC1,nr2,25,?C
CN1CCOCC1,"Morpholine, N-methyl-",7.38,Log unit,N1(CCOCC1)C,nr2,25,?C
CC(CC(C1=CC=CC=C1)C1=CC=CC=C1)N1CCOCC1,"Morpholine, N-(1-methyl-3,3-diphenyl)propyl-",6.85,Log unit,N1(C(CC(c2ccccc2)c2ccccc2)C)CCOCC1,nr2,25,?C
C(CN1CCOCC1)N1CCOCC1,"Morphoilne, N-(2-morpholino)ethyl-",6.35,Log unit,N1(CCOCC1)CCN1CCOCC1,nr2,25,?C
C(CN1CCOCC1)CN1CCOCC1,"Morpholine, N-(3-morpholino)propyal-",7,Log unit,N1(CCOCC1)CCCN1CCOCC1,nr2,25,?C
C1CNCCN1,Piperazine:,9.5,Log unit,N1CCNCC1,nr2,25,?C
C1C[NH2+]CCN1,piperazine,5.86,Log unit,N1CC[NH2+]CC1,nr2,25,?C
CC1CNC(C)CN1,"Piperazine, trans-2,5-dimethyl-",9.66,Log unit,N1CC(NCC1C)C,nr2,25,?C
CC1C[NH2+]C(C)CN1,"Piperazine, trans-2,5-dimethyl-",5.2,Log unit,N1C(C[NH2+]C(C1)C)C,nr2,25,?C
CN1CCN(CC1)C(C1=CC=C(C)C=C1)C1=CC=C(C)C=C1,"Piperazine, 1-methyl-4-(4_methylbenzhydry)-",8.21,Log unit,N1(C(c2ccc(cc2)C)c2ccc(C)cc2)CCN(C)CC1,nr2,25,?C
[NH3+]CCC1=CNC2=C1C=C(O)C=C2,3-(2-aminoethyl)-5-hydroxyindole,10,Log unit,Oc1ccc2[nH]cc(c2c1)CC[NH3+],oh,25,?C
NC1=CC=CC2=C1C(=O)C1=CC=CC=C1C2=O,1-AMINOANTHRAQUINONE,0.44,Log unit,Nc1cccc2C(=O)c3ccccc3C(=O)c12,nr2,25,?C
CNC1=CC=CC2=C1C(=O)C1=CC=CC=C1C2=O,DISPERSE RED 9,0.56,Log unit,N(c1cccc2C(=O)c3ccccc3C(=O)c12)C,nr2,25,?C
NC1=CC(=CC2=CC(=CC(O)=C12)S([O-])(=O)=O)S([O-])(=O)=O,"1-amino-8-hydroxy-3,6-disulphonaphthalene",8.827,Log unit,Oc1cc(S(=O)(=O)[O-])cc2c1c(cc(c2)S(=O)(=O)[O-])N,oh,25,?C
NC1=C2C=CC=CC2=CC(I)=C1,1-amino-3-iodo-naphthalene,2.82,Log unit,Nc1cc(I)cc2c1cccc2,nr2,25,?C
NC1=CC2=C(C=CC=C2)C(I)=C1,2-amino-4-iodo-naphthalene,3.41,Log unit,Nc1cc(I)c2ccccc2c1,nr2,25,?C
COC1=CC2=CC=CC=C2C(N)=C1,1-amino-3-methoxynaphthalene,3.26,Log unit,Nc1c2ccccc2cc(c1)OC,nr2,25,?C
COC1=CC2=CC=CC(N)=C2C=C1,1-amino-6-methoxynaphthalene,3.9,Log unit,Nc1cccc2c1ccc(c2)OC,nr2,25,?C
COC1=CC2=C(N)C=CC=C2C=C1,1-amino-7-methoxynaphthalene,4.07,Log unit,Nc1cccc2c1cc(OC)cc2,nr2,25,?C
COC1=CC(N)=CC2=CC=CC=C12,2-amino-4-methoxy-naphthalene,4.05,Log unit,Nc1cc2ccccc2c(c1)OC,nr2,25,?C
COC1=CC2=C(C=C1)C=C(N)C=C2,2-amino-6-methoxy-naphthalene,4.64,Log unit,Nc1ccc2cc(ccc2c1)OC,nr2,25,?C
COC1=CC2=C(C=CC(N)=C2)C=C1,2-amino-7-methoxy-naphthalene,4.19,Log unit,Nc1ccc2ccc(OC)cc2c1,nr2,25,?C
COC(=O)C1=CC2=CC=CC=C2C(N)=C1,1-amino-3-methoxycarbonylnaphthalene,3.12,Log unit,Nc1c2ccccc2cc(C(=O)OC)c1,nr2,25,?C
COC(=O)C1=CC(N)=CC2=CC=CC=C12,2-amino-4-methoxycarbonylnaphthalene,3.38,Log unit,Nc1cc2ccccc2c(c1)C(=O)OC,nr2,25,?C
CC1=CC2=CC=CC=C2C(N)=C1,1-amino-3-methylnaphthalene,3.96,Log unit,Nc1c2ccccc2cc(c1)C,nr2,25,?C
CC1=CC=C(N)C2=CC=CC=C12,1-amino-4-methylnaphthalene,4.37,Log unit,Nc1c2ccccc2c(cc1)C,nr2,25,?C
CC1=CC(N)=CC2=CC=CC=C12,2-amino-4-methylnaphthalene,4.31,Log unit,Nc1cc2ccccc2c(c1)C,nr2,25,?C
CS(=O)(=O)C1=CC(N)=C2C=CC=CC2=C1,1-amino-3-methylsulphonylnaphthalene,2.04,Log unit,Nc1cc(S(=O)(=O)C)cc2c1cccc2,nr2,25,?C
CS(=O)(=O)C1=CC=C(N)C2=C1C=CC=C2,1-amino-4-methylsulphonylnaphthalene,0.8,Log unit,Nc1ccc(S(=O)(=O)C)c2ccccc12,nr2,25,?C
CS(=O)(=O)C1=CC=CC2=C1C=CC=C2N,1-amino-5-methylsulphonylnaphthalene,2.77,Log unit,Nc1c2cccc(c2ccc1)S(=O)(=O)C,nr2,25,?C
CS(=O)(=O)C1=CC=C2C(N)=CC=CC2=C1,1-amino-6-methylsulphonylnaphthalene,2.97,Log unit,Nc1c2ccc(S(=O)(=O)C)cc2ccc1,nr2,25,?C
CS(=O)(=O)C1=CC=C2C=CC=C(N)C2=C1,1-amino-7-methylsulphonylnaphthalene,2.71,Log unit,Nc1c2cc(S(=O)(=O)C)ccc2ccc1,nr2,25,?C
CS(=O)(=O)C1=CC=CC2=C1C(N)=CC=C2,1-amino-8-methylsulphonylnaphthalene,2.06,Log unit,Nc1c2c(S(=O)(=O)C)cccc2ccc1,nr2,25,?C
CS(=O)(=O)C1=C(N)C=CC2=C1C=CC=C2,2-amino-1-methylsulphonylnaphthalene,-0.55,Log unit,Nc1c(S(=O)(=O)C)c2ccccc2cc1,nr2,25,?C
CS(=O)(=O)C1=CC(N)=CC2=C1C=CC=C2,2-amino-4-methylsulphonylnaphthalene,2.61,Log unit,Nc1cc(S(=O)(=O)C)c2ccccc2c1,nr2,25,?C
CS(=O)(=O)C1=CC=CC2=C1C=CC(N)=C2,2-amino-5-methylsulphonylnaphthalene,3.07,Log unit,Nc1ccc2c(S(=O)(=O)C)cccc2c1,nr2,25,?C
CS(=O)(=O)C1=CC=C2C=C(N)C=CC2=C1,2-amino-6-methylsulphonylnaphthalene,2.77,Log unit,Nc1cc2ccc(S(=O)(=O)C)cc2cc1,nr2,25,?C
CS(=O)(=O)C1=CC=C2C=CC(N)=CC2=C1,2-amino-7-methylsulphonylnaphthalene,3.12,Log unit,Nc1cc2cc(S(=O)(=O)C)ccc2cc1,nr2,25,?C
CS(=O)(=O)C1=CC=CC2=C1C=C(N)C=C2,2-amino-8-methylsulphonylnaphthalene,2.7,Log unit,Nc1cc2c(S(=O)(=O)C)cccc2cc1,nr2,25,?C
NC1=C(C=CC2=CC=CC=C12)N(=O)=O,1-amino-2-nitronaphthalene,-1.74,Log unit,Nc1c2ccccc2ccc1N(=O)=O,nr2,25,?C
NC1=CC(=CC2=CC=CC=C12)N(=O)=O,1-amino-3-nitro-naphthalene,2.07,Log unit,Nc1c2ccccc2cc(c1)N(=O)=O,nr2,25,?C
NC1=CC=C(C2=CC=CC=C12)N(=O)=O,1-amino-4-nitro-naphthalene,0.54,Log unit,N(=O)(=O)c1c2ccccc2c(cc1)N,nr2,25,?C
NC1=C2C=CC=C(C2=CC=C1)N(=O)=O,1-amino-5-nitronaphthalene,2.73,Log unit,Nc1cccc2c1cccc2N(=O)=O,nr2,25,?C
NC1=C2C=CC(=CC2=CC=C1)N(=O)=O,1-amino-6-nitronaphthalene,2.89,Log unit,Nc1cccc2c1ccc(c2)N(=O)=O,nr2,25,?C
NC1=C2C=C(C=CC2=CC=C1)N(=O)=O,1-amino-7-nitronaphthalene,2.55,Log unit,Nc1cccc2c1cc(N(=O)=O)cc2,nr2,25,?C
NC1=C2C(C=CC=C2N(=O)=O)=CC=C1,1-amino-8-nitronaphthalene,2.79,Log unit,Nc1cccc2c1c(ccc2)N(=O)=O,nr2,25,?C
NC1=C(C2=CC=CC=C2C=C1)N(=O)=O,2-Amino-1-nitronaphthalene,-0.85,Log unit,Nc1c(c2ccccc2cc1)N(=O)=O,nr2,25,?C
NC1=CC2=CC=CC=C2C(=C1)N(=O)=O,2-amino-4-nitro-naphthalene,2.43,Log unit,N(=O)(=O)c1c2ccccc2cc(c1)N,nr2,25,?C
NC1=CC2=C(C=C1)C(=CC=C2)N(=O)=O,2-amino-5-nitro-naphthalene,3.01,Log unit,N(=O)(=O)c1c2ccc(cc2ccc1)N,nr2,25,?C
NC1=CC2=C(C=C1)C=C(C=C2)N(=O)=O,2-amino-6-nitro-naphthalene,2.62,Log unit,N(=O)(=O)c1cc2ccc(cc2cc1)N,nr2,25,?C
NC1=CC2=C(C=C1)C=CC(=C2)N(=O)=O,2-amino-7-nitro-naphthalene,3.1,Log unit,N(=O)(=O)c1ccc2ccc(cc2c1)N,nr2,25,?C
NC1=CC2=C(C=CC=C2N(=O)=O)C=C1,2-amino-8-nitronaphthalene,2.73,Log unit,N(=O)(=O)c1c2c(ccc(c2)N)ccc1,nr2,25,?C
NC1CCCC2=CC=CC=C12,"1-amino-1,2,3,4-tetrahydronaphthalene",9.63,Log unit,NC1c2ccccc2CCC1,nr2,25,?C
NC1CCC2=CC=CC=C2C1,"2-amino-1,2,3,4-tetrahydronaphthalene",9.93,Log unit,NC1Cc2ccccc2CC1,nr2,25,?C
NC1=C2CCCCC2=CC=C1,"5-Amino-1,2,3,4-tetrahydronaphthalene",4.47,Log unit,Nc1c2CCCCc2ccc1,nr2,25,?C
NC1=CC=C2CCCCC2=C1,"6-Amino-1,2,3,4-tetrahydronaphthalene",5.17,Log unit,Nc1cc2CCCCc2cc1,nr2,25,?C
CCCCN(C)C1CCC2=CC=CC=C2C1,"2-(N-butyl-N-methyl)amino-1,2,3,4-tetrahydronaphthalene",9.71,Log unit,N(C1Cc2ccccc2CC1)(C)CCCC,nr2,25,?C
NC1=CC=C(N)C2=CC=CC=C12,"1,4-Diaminonaphthalene",5.57,Log unit,Nc1c2ccccc2c(cc1)N,nr2,25,?C
NC1=CC=CC2=CC=CC(N)=C12,"1,8-Diaminonaphthalene",4.3,Log unit,Nc1cccc2c1c(ccc2)N,nr2,25,?C
NC1=CC(N)=C(O)C2=CC=CC=C12,"1,3-diamino-4-hydroxynaphthalene",4.7,Log unit,Nc1c(c2ccccc2c(c1)N)O,nr2,25,?C
NC1=CC([NH3+])=C([O-])C2=CC=CC=C12,"1,3-diamino-4-hydroxynaphthalene",3.14,Log unit,Nc1c2ccccc2c([O-])c([NH2+])c1,nr2,25,?C
NC1=CC(N)=C(O)C2=CC=CC=C12,"1,3-diamino-4-hydroxynaphthalene",10.18,Log unit,Oc1c2ccccc2c(cc1N)N,oh,25,?C
CN(C)C1=CC=CC2=CC=CC=C12,1-Dimethylaminonaphthalene,4.83,Log unit,N(c1c2ccccc2ccc1)(C)C,nr2,25,?C
CN(C)C1=CC2=CC=CC=C2C=C1,2-dimethylaminonaphthalene,4.566,Log unit,N(c1cc2ccccc2cc1)(C)C,nr2,25,?C
CCNC1=CC=CC2=CC=CC=C12,1-ethylaminonaphthalene,4.19,Log unit,N(c1c2ccccc2ccc1)CC,nr2,25,?C
CNC1=CC=CC2=CC=CC=C12,1-Methylaminonaphthalene,3.67,Log unit,N(c1c2ccccc2ccc1)C,nr2,25,?C
NC1=CC=C(C=CC2=CC=C(N)C=C2)C=C1,"4,4'-diamino-stilbene",4.9,Log unit,Nc1ccc(C=Cc2ccc(cc2)N)cc1,nr2,25,?C