Smiles,Name,pKa,pKa Unit,Ionizable center smiles,IC group,Temperature,Temperature Unit
CC1=CC(C)=C(O)C(C)=C1N(=O)=O,meta-nitro-mesitol,8.98,Log unit,Oc1c(cc(C)c(c1C)N(=O)=O)C,,25,?C
OC1=CC=C(C=C1N(=O)=O)N(=O)=O,"2,4-dinitro-phenol",4.0715,Log unit,Oc1ccc(N(=O)=O)cc1N(=O)=O,,25,?C
OC1=CC(=CC=C1N(=O)=O)N(=O)=O,"2,5-dinitro-phenol",5.211,Log unit,Oc1cc(ccc1N(=O)=O)N(=O)=O,,25,?C
OC1=C(C=CC=C1N(=O)=O)N(=O)=O,"2,6-dinitro-phenol",3.965,Log unit,Oc1c(cccc1N(=O)=O)N(=O)=O,,25,?C
OC1=C(C=C(C=C1N(=O)=O)N(=O)=O)N(=O)=O,"2,4,6-trinitro-phenol",0.3515,Log unit,Oc1c(cc(N(=O)=O)cc1N(=O)=O)N(=O)=O,,25,?C
COC1=CC=CC=C1O,2-Methoxy-Phenol,9.875,Log unit,Oc1ccccc1OC,,25,?C
COC1=CC(CC=C)=CC=C1O,4-allyl-2-methoxy-phenol,10.17,Log unit,Oc1ccc(CC=C)cc1OC,,25,?C
OC1=C(C=C(Cl)C=C1N(=O)=O)N(=O)=O,"4-chloro-2,6-dinitro-phenol",2.96,Log unit,Oc1c(cc(Cl)cc1N(=O)=O)N(=O)=O,,25,?C
OC1=C(Cl)C(Cl)=C(Cl)C(Cl)=C1Cl,pentachloro-Phenol,4.5,Log unit,Oc1c(c(c(Cl)c(Cl)c1Cl)Cl)Cl,,25,?C
OC1=C(F)C(F)=C(F)C(F)=C1F,pentafluoro-phenol,5.365,Log unit,Oc1c(c(c(F)c(F)c1F)F)F,,25,?C
OC1=C(Cl)C=C(Cl)C=C1Cl,"2,4,6-trichloro-phenol",6.23,Log unit,Oc1c(cc(Cl)cc1Cl)Cl,,25,?C
OC1=C(Cl)C(Cl)=CC=C1,"2,3-dichloro-phenol",7.7,Log unit,Oc1c(c(Cl)ccc1)Cl,,25,?C
OC1=CC(Cl)=CC=C1Cl,"2,5-dichloro-phenol",7.51,Log unit,Oc1cc(Cl)ccc1Cl,,25,?C
OC1=C(Cl)C=CC=C1Cl,"2,6-dichloro-phenol",6.79,Log unit,Oc1c(Cl)cccc1Cl,,25,?C
OC1=C(Br)C=C(Br)C=C1,"2,4-dibromo-phenol",7.79,Log unit,Oc1c(cc(Br)cc1)Br,,25,?C
OC1=C(Br)C=CC=C1Br,"2,6-Dibromo-phenol",6.67,Log unit,Oc1c(Br)cccc1Br,,25,?C
OC1=C(C(=CC=C1)N(=O)=O)N(=O)=O,"2,3-dinitro-phenol",4.97,Log unit,Oc1cccc(c1N(=O)=O)N(=O)=O,,25,?C
NC1=CC(=C(O)C=C1)N(=O)=O,4-AMINO-2-NITRO-PHENOL,7.81,Log unit,Oc1ccc(cc1N(=O)=O)N,,25,?C
OC1=C(C(Cl)=C(C(Cl)=C1N(=O)=O)N(=O)=O)N(=O)=O,"3,5-dichloro-2,4,6-trinitro-phenol",-0.7,Log unit,Oc1c(c(Cl)c(c(Cl)c1N(=O)=O)N(=O)=O)N(=O)=O,,25,?C
OC1=C(C(Cl)=C(C=C1N(=O)=O)N(=O)=O)N(=O)=O,"3-chloro-2,4,6-trinitro-phenol",-0.2,Log unit,Oc1c(c(Cl)c(cc1N(=O)=O)N(=O)=O)N(=O)=O,,25,?C
OC1=C(C(Br)=C(C=C1N(=O)=O)N(=O)=O)N(=O)=O,"3-bromo-2,4,6-trinitro-phenol",-0.05,Log unit,Oc1c(c(Br)c(cc1N(=O)=O)N(=O)=O)N(=O)=O,,25,?C
OC1=C(C(I)=C(C=C1N(=O)=O)N(=O)=O)N(=O)=O,"3-iodo-2,4,6-trinitro-phenol",0.15,Log unit,Oc1c(c(I)c(cc1N(=O)=O)N(=O)=O)N(=O)=O,,25,?C
OC1=C(Cl)C=C(Br)C=C1Cl,"4-bromo-2,6-dichloro-phenol",6.21,Log unit,Oc1c(cc(Br)cc1Cl)Cl,,25,?C
OC1=C(Cl)C=C(C=C1Cl)N(=O)=O,"2,6-dichloro-4-nitro-phenol",3.555,Log unit,Oc1c(Cl)cc(cc1Cl)N(=O)=O,,25,?C
OC1=C(Br)C=C(Br)C=C1N(=O)=O,"2,4-dibromo-6-nitro-phenol",4.71,Log unit,Oc1c(cc(Br)cc1N(=O)=O)Br,,25,?C
OC1=C(Br)C=C(C=C1Br)N(=O)=O,"2,6-dibromo-4-nitro-phenol",3.39,Log unit,Oc1c(Br)cc(cc1Br)N(=O)=O,,25,?C
OC1=C(I)C=C(C=C1I)N(=O)=O,"2,6-diiodo-4-nitro-phenol",3.32,Log unit,Oc1c(I)cc(cc1I)N(=O)=O,,25,?C
OC1=C(C=C(C=C1Cl)N(=O)=O)N(=O)=O,"2-chloro-4,6-dinitro-phenol",2.055,Log unit,Oc1c(Cl)cc(cc1N(=O)=O)N(=O)=O,,25,?C
OC1=C(C=C(C=C1Br)N(=O)=O)N(=O)=O,"2-bromo-4,6-dinitro-phenol",2.23,Log unit,Oc1c(Br)cc(cc1N(=O)=O)N(=O)=O,,25,?C
OC1=CC=C(Br)C=C1Cl,4-bromo-2-chloro-phenol,7.64,Log unit,Oc1ccc(Br)cc1Cl,,25,?C
OC1=CC=C(C=C1Cl)N(=O)=O,2-chloro-4-nitro-phenol,5.38,Log unit,Oc1c(Cl)cc(cc1)N(=O)=O,,25,?C
OC1=C(C=CC=C1Cl)N(=O)=O,2-chloro-6-nitro-phenol,5.483,Log unit,Oc1c(Cl)cccc1N(=O)=O,,25,?C
OC1=CC(Cl)=CC=C1N(=O)=O,3-chloro-6-nitro-phenol,6.05,Log unit,Oc1cc(Cl)ccc1N(=O)=O,,25,?C
OC1=CC=C(Cl)C=C1N(=O)=O,4-chloro-2-nitro-phenol,6.459,Log unit,Oc1ccc(Cl)cc1N(=O)=O,,25,?C
OC1=CC(F)=CC=C1N(=O)=O,5-fluoro-2-nitro-phenol,6.07,Log unit,Oc1cc(F)ccc1N(=O)=O,,25,?C
OC1=CC=CC=C1C#N,2-hydroxy-benzenecarbonitrile,6.86,Log unit,Oc1ccccc1C#N,,25,?C
OC1=CC(=CC=C1)C(F)(F)F,3-Trifluoromethyl-phenol,8.95,Log unit,Oc1cccc(C(F)(F)F)c1,,25,?C
OC1=CC=C(C=C1)C(F)(F)F,4-trifluoromethyl-phenol,8.675,Log unit,Oc1ccc(C(F)(F)F)cc1,,25,?C
CC1=C(C(O)=C(C=C1N(=O)=O)N(=O)=O)N(=O)=O,"3-Methyl-2,4,6-trinitro-phenol",0.905,Log unit,Oc1c(cc(N(=O)=O)c(c1N(=O)=O)C)N(=O)=O,,25,?C
COC1=C(C(O)=C(C=C1N(=O)=O)N(=O)=O)N(=O)=O,"3-methoxy-2,4,6-trinitro-phenol",0.37,Log unit,Oc1c(cc(N(=O)=O)c(c1N(=O)=O)OC)N(=O)=O,,25,?C
CC1=CC(Cl)=CC(Cl)=C1O,"2,4-dichloro-6-methyl-phenol",8.14,Log unit,Oc1c(cc(Cl)cc1C)Cl,,25,?C
CC1=CC(Cl)=C(O)C(Cl)=C1,"2,6-dichloro-4-methyl-phenol",7.19,Log unit,Oc1c(Cl)cc(cc1Cl)C,,25,?C
CC1=C(O)C(=CC(=C1)N(=O)=O)N(=O)=O,"2-methyl-4,6-dinitro-phenol",4.2,Log unit,Oc1c(cc(N(=O)=O)cc1N(=O)=O)C,,25,?C
CC1=CC=C(O)C(Cl)=C1,2-chloro-4-methyl-phenol,8.74,Log unit,Oc1c(Cl)cc(cc1)C,,25,?C
CC1=C(O)C(Cl)=CC=C1,4-chloro-6-methyl-phenol,8.69,Log unit,Oc1c(Cl)cccc1C,,25,?C
CC(=O)C1=C(O)C=CC=C1,2-hydroxy-acetophenone,10.1,Log unit,Oc1c(C(=O)C)cccc1,,25,?C
CC(=O)C1=CC=CC(O)=C1,3-HYDROXY-ACETOPHENONE,9.25,Log unit,Oc1cccc(c1)C(=O)C,,25,?C
CC(=O)C1=CC=C(O)C=C1,4-hydroxy-acetophenone,8.030001,Log unit,Oc1ccc(C(=O)C)cc1,,25,?C
CC(=O)C1=C(O)C(=CC(=C1)N(=O)=O)N(=O)=O,"2-hydroxy-3,5-dinitro-acetophenone",3.1,Log unit,Oc1c(C(=O)C)cc(cc1N(=O)=O)N(=O)=O,,25,?C
OOC(=O)C1=CC(Cl)=CC=C1,3-chloro-peroxybenzoic acid,7.57,Log unit,OOC(=O)c1cc(Cl)ccc1,,25,?C
OOC(=O)C1=CC=C(Cl)C=C1,4-chloro-peroxybenzoic acid,7.64,Log unit,OOC(=O)c1ccc(Cl)cc1,,25,?C
OOC(=O)C1=C(F)C=CC=C1,2-fluoro-peroxybenzoic acid,6.77,Log unit,OOC(=O)c1c(F)cccc1,,25,?C
OOC(=O)C1=CC(F)=CC=C1,3-fluoro-peroxybenzoic acid,7.57,Log unit,OOC(=O)c1cc(F)ccc1,,25,?C
OOC(=O)C1=CC=C(F)C=C1,4-fluoro-peroxybenzoic acid,7.76,Log unit,OOC(=O)c1ccc(F)cc1,,25,?C
CC1=CC(Cl)=CC=C1O,4-chloro-2-methyl-phenol,9.63,Log unit,Oc1ccc(Cl)cc1C,,25,?C
COC1=CC=C(O)C(Br)=C1,2-bromo-4-methoxy-phenol,8.69,Log unit,Oc1c(Br)cc(cc1)OC,,25,?C
CC1=CC=C(C=C1O)N(=O)=O,2-Methyl-5-nitro-phenol,8.59,Log unit,Oc1cc(ccc1C)N(=O)=O,,25,?C
CC1=CC(O)=C(C=C1)N(=O)=O,5-methyl-2-nitro-phenol,7.33,Log unit,Oc1c(ccc(c1)C)N(=O)=O,,25,?C
CC1=CC(=C(O)C=C1)N(=O)=O,4-methyl-2-nitro-phenol,7.4985,Log unit,Oc1ccc(cc1N(=O)=O)C,,25,?C
CC1=CC=C(O)C=C1N(=O)=O,4-methyl-3-nitro-phenol,8.62,Log unit,Oc1ccc(C)c(c1)N(=O)=O,,25,?C
CC1=CC(O)=C(C=C1)N(=O)=O,5-methyl-2-nitro-phenol,7.45,Log unit,Oc1c(N(=O)=O)ccc(C)c1,,25,?C
COC1=C(O)C(=CC=C1)N(=O)=O,2-methoxy-6-nitro-phenol,6.84,Log unit,Oc1c(cccc1N(=O)=O)OC,,25,?C
COC1=CC(O)=CC=C1N(=O)=O,3-methoxy-4-nitro-phenol,6.1,Log unit,Oc1ccc(N(=O)=O)c(c1)OC,,25,?C
COC1=CC=C(C(O)=C1)N(=O)=O,5-methoxy-2-nitro-phenol,6.815,Log unit,Oc1cc(ccc1N(=O)=O)OC,,25,?C
COC1=CC=C(O)C(=C1)N(=O)=O,4-methoxy-2-nitro-phenol,7.39,Log unit,Oc1ccc(OC)cc1N(=O)=O,,25,?C
COC1=CC=C(O)C=C1N(=O)=O,4-methoxy-3-nitro-phenol,8.68,Log unit,Oc1ccc(OC)c(c1)N(=O)=O,,25,?C
COC1=CC(N)=C(O)C=C1,2-amino-4-methoxy-phenol,10.07,Log unit,Oc1ccc(cc1N)OC,,25,?C
OC1=C(Cl)C=C(C=C1Cl)C#N,"3,5-dichloro-4-hydroxy-benzenecarbonitrile",4.305,Log unit,Oc1c(Cl)cc(cc1Cl)C#N,,25,?C
OC1=C(Br)C=C(C=C1Br)C#N,"3,5-dibromo-4-hydroxy-benzenecarbonitrile",4.05,Log unit,Oc1c(Br)cc(cc1Br)C#N,,25,?C
OC1=C(I)C=C(C=C1I)C#N,"4-hydroxy-3,5-diiodo-benzenecarbonitrile",4.15,Log unit,Oc1c(I)cc(cc1I)C#N,,25,?C
CC1=C(C(O)=C(C=C1Cl)N(=O)=O)N(=O)=O,"4-chloro-3-methyl-2,6-dinitro-phenol",3.24,Log unit,Oc1c(cc(Cl)c(C)c1N(=O)=O)N(=O)=O,,25,?C
COC(=O)C1=CC=CC=C1O,Methyl 2-hydroxybenzoate,10.03,Log unit,Oc1ccccc1C(=O)OC,,25,?C
COC(=O)C1=C(O)C([O-])=CC=C1,"2,3-dihydroxybenzoate-methyl",12.94,Log unit,Oc1c(C(=O)OC)cccc1[O-],,25,?C
COC(=O)C1=C(O)C=C([O-])C=C1,"2,4-dihydroxybenzoate-methyl",11.73,Log unit,Oc1c(C(=O)OC)ccc(c1)[O-],,25,?C
COC(=O)C1=C(O)C=CC([O-])=C1,"2,5-dihydroxybenzoate-methyl",12.02,Log unit,Oc1c(C(=O)OC)cc(cc1)[O-],,25,?C
COC(=O)C1=C(O)C=CC=C1[O-],"2,6-dihydroxybenzoate-methyl",11.3,Log unit,Oc1c(C(=O)OC)c(ccc1)[O-],,25,?C
COC(=O)C1=CC([O-])=CC(O)=C1,"3,5-dihydroxybenzoate-methyl",10.36,Log unit,Oc1cc(cc(C(=O)OC)c1)[O-],,25,?C
CCOC1=CC=CC=C1O,2-ethoxy-phenol,10.11,Log unit,Oc1ccccc1OCC,,25,?C
CCOC1=CC=CC(O)=C1,3-ethoxy-phenol,9.65,Log unit,Oc1cccc(c1)OCC,,25,?C
CCOC1=CC=C(O)C=C1,4-ethoxy-phenol,10.13,Log unit,Oc1ccc(cc1)OCC,,25,?C
COC1=C(O)C=CC=C1C,2-methoxy-3-methyl-phenol,9.74,Log unit,Oc1cccc(c1OC)C,,25,?C
COC1=C(O)C=CC(C)=C1,2-methoxy-4-methyl-phenol,10.245,Log unit,Oc1ccc(cc1OC)C,,25,?C
COC1=C(O)C=C(C)C=C1,2-methoxy-5-methyl-phenol,9.93,Log unit,Oc1c(ccc(c1)C)OC,,25,?C
COC1=CC=CC(C)=C1O,2-methoxy-6-methyl-phenol,10.285,Log unit,Oc1c(cccc1OC)C,,25,?C
COC1=CC(O)=C(C)C=C1,5-methoxy-2-methyl-phenol,9.38,Log unit,Oc1c(ccc(c1)OC)C,,25,?C
COC1=CC(C)=C(O)C=C1,4-methoxy-2-methyl-phenol,10.21,Log unit,Oc1ccc(cc1C)OC,,25,?C
CCOO,ethylhydroperoxide,11.8,Log unit,OOCC,,25,?C
ON(=O)=O,NITRIC ACID,-1.3,Log unit,ON(=O)=O,,25,?C
CC(C)=NO,Acetoxime,12.42,Log unit,ON=C(C)C,,25,?C
CC(=NO)N=O,1-nitrosoethanaloxime,5.8,Log unit,ON=C(N=O)C,,25,?C
CCC(C)=NO,Methylethylketoxime,12.45,Log unit,ON=C(C)CC,,25,?C
CCC(CC)=NO,diethylketoxime,12.6,Log unit,ON=C(CC)CC,,25,?C
ON(S([O-])(=O)=O)S([O-])(=O)=O,"182 Hydroxylamine-N,N-disulphonic acid",11.85,Log unit,ON(S(=O)(=O)[O-])S(=O)(=O)[O-],,25,?C
ONOS(=O)=O,182 Hydroxylamine-N-sulphonic acid,12.5,Log unit,ONOS(=O)=O,,25,?C
OCC(Cl)(Cl)Cl,"2,2,2-trichloro-ethanol",12.245,Log unit,OCC(Cl)(Cl)Cl,,25,?C
OCC(F)(F)F,"2,2,2-trifluoro-ethanol",12.585,Log unit,OCC(F)(F)F,,25,?C
OCC(Cl)Cl,"2,2-Dichloro-ethanol",12.89,Log unit,OCC(Cl)Cl,,25,?C
OCCCl,2-CHLORO-ETHANOL,14.31,Log unit,OCCCl,,25,?C
OCC=C,2-propen-1-ol (allyl alcohol),15.5,Log unit,OCC=C,,25,?C
CCCO,1-Propanol,16.1,Log unit,OCCC,,25,?C
CC(C)O,2-Propanol,17.1,Log unit,OC(C)C,,25,?C
COCCO,2-methoxy-ethanol,14.8,Log unit,OCCOC,,25,?C
CC(C)OO,isopropyl-hydroperoxide,12.1,Log unit,OOC(C)C,,25,?C
CN(C)CC(O)C(F)(F)F,"1-dimethylamino-3,3,3-trifluoro-2-propanol",12.56,Log unit,OC(C(F)(F)F)CN(C)C,,25,?C
OCC(F)(F)C(F)F,"2,2,3,3-Tetrafluoro-1-propanol",12.74,Log unit,OCC(C(F)F)(F)F,,25,?C
CCCCO,1-Butanol,16.1,Log unit,OCCCC,,25,?C
CCC(C)O,2-butanol,17.6,Log unit,OC(C)CC,,25,?C
CC(C)(C)O,2-Methyl-2-propanol,19.2,Log unit,OC(C)(C)C,,25,?C
CC(C)(C)OO,TERT-BUTYL HYDROPEROXIDE,12.8,Log unit,OOC(C)(C)C,,25,?C
CCC(C)OO,iso-butyl hydroperoxide,12.8,Log unit,OOC(C)CC,,25,?C
OC(C(F)(F)F)(C(F)(F)F)C(F)(F)F,"1,1,1,3,3,3-Hexafluoro-2-trifluoromethyl-2-propanol",5.4,Log unit,OC(C(F)(F)F)(C(F)(F)F)C(F)(F)F,,25,?C
CC(O)(C(F)(F)F)C(F)(F)F,"1,1,1,3,3,3-Hexafluoro-2-methyl-2-propanol",9.6,Log unit,OC(C(F)(F)F)(C)C(F)(F)F,,25,?C
OC(C(F)(F)F)(C(F)(F)F)C(F)(F)Cl,"1-chloro-1,1,3,3,3-pentafluoro-2-trifluoromethyl-2-propanol",5.3,Log unit,OC(C(Cl)(F)F)(C(F)(F)F)C(F)(F)F,,25,?C
OC(C(F)(F)F)(C(F)(F)F)C(Cl)(Cl)Cl,"1,1,1-trichloro-3,3,3-trifluoro-2-trifluoromethyl-2-propanol",5.1,Log unit,OC(C(Cl)(Cl)Cl)(C(F)(F)F)C(F)(F)F,,25,?C
OC(C(F)(F)F)(C(F)(F)F)C(F)(F)N(=O)=O,"1,1,1,3,3-pentafluoro-3-nitro-2-trifluoromethyl-2-propanol",3.9,Log unit,OC(C(N(=O)=O)(F)F)(C(F)(F)F)C(F)(F)F,,25,?C
OC1=CC=CC=C1,Phenol,9.98,Log unit,Oc1ccccc1,,25,?C
CC1=CC=CC(O)=C1,m-cresol,10.094,Log unit,Oc1cccc(c1)C,,25,?C
CC1=CC=C(O)C=C1,p-cresol,10.268,Log unit,Oc1ccc(cc1)C,,25,?C
CC1=C(C)C=C(O)C=C1,"3,4-dimethyl-phenol",10.358,Log unit,Oc1ccc(c(C)c1)C,,25,?C
CC1=CC(O)=CC(C)=C1,"3,5-dimethyl-phenol",10.1965,Log unit,Oc1cc(cc(c1)C)C,,25,?C
CCC1=CC=CC(O)=C1,m-ethyl-phenol,10.0695,Log unit,Oc1cccc(c1)CC,,25,?C
CCC1=CC=C(O)C=C1,p-ethyl-phenol,10.195,Log unit,Oc1ccc(cc1)CC,,25,?C
CCC1=CC(O)=CC(C)=C1,3-methyl-5-ethyl-phenol,10.1,Log unit,Oc1cc(cc(c1)CC)C,,25,?C
OC1=CC2=C(CCC2)C=C1,indanol-4,10.28,Log unit,Oc1ccc2CCCc2c1,,25,?C
OC1=C2CCCCC2=CC=C1,tetralol-1,10.285,Log unit,Oc1cccc2c1CCCC2,,25,?C
OC1=CC2=C(CCCC2)C=C1,tetralol-2,10.44,Log unit,Oc1ccc2CCCCc2c1,,25,?C
OC1=CC(=CC=C1)C1=CC=CC=C1,m-hydroxy-biphenyl,9.635,Log unit,Oc1cc(c2ccccc2)ccc1,,25,?C
OC1=CC=C(C=C1)C1=CC=CC=C1,p-hydroxy-biphenyl,9.55,Log unit,Oc1ccc(c2ccccc2)cc1,,25,?C
OC1=CC2=CC=CC=C2C=C1,b-naphthol,9.77,Log unit,Oc1cc2ccccc2cc1,,25,?C
OC1=CC=CC=C1[O-],Pyrocatechine,11.8,Log unit,Oc1ccccc1[O-],,25,?C
OC1=CC=CC([O-])=C1,Resorcinol,11,Log unit,Oc1cccc(c1)[O-],,25,?C
OC1=CC=C([O-])C=C1,Hydroquinone,11.4,Log unit,Oc1ccc(cc1)[O-],,25,?C
CC1=C(O)C=CC([O-])=C1,Toluhydroquinone,11.6,Log unit,Oc1ccc(cc1C)[O-],,25,?C
CC1=C(C)C([O-])=C(C)C(C)=C1O,Durohydroquinone,12.5,Log unit,Oc1c(c(c([O-])c(c1C)C)C)C,,25,?C
OC1=C([O-])C=CC=C1[O-],pyrogallol,14,Log unit,Oc1c(cccc1[O-])[O-],,25,?C
OC1=CC(Cl)=C([O-])C(Cl)=C1,"2,6-Dichlorohydroquinone",10,Log unit,Oc1cc(Cl)c([O-])c(c1)Cl,,25,?C
OC1=CC(F)=CC=C1,m-fluoro-phenol,9.25,Log unit,Oc1cc(F)ccc1,,25,?C
OC1=CC=C(F)C=C1,p-fluoro-phenol,9.83,Log unit,Oc1ccc(F)cc1,,25,?C
OC1=CC(Cl)=CC=C1,m-chloro-phenol,9.1245,Log unit,Oc1cc(Cl)ccc1,,25,?C
OC1=CC=C(Cl)C=C1,p-chloro-phenol,9.365,Log unit,Oc1ccc(Cl)cc1,,25,?C
OC1=CC(Br)=CC=C1,m-bromo-phenol,9.0455,Log unit,Oc1cc(Br)ccc1,,25,?C
OC1=CC=C(Br)C=C1,p-bromo-phenol,9.363,Log unit,Oc1ccc(Br)cc1,,25,?C
OC1=CC(I)=CC=C1,m-iodo-phenol,9.0465,Log unit,Oc1cc(I)ccc1,,25,?C
OC1=CC=C(I)C=C1,p-iodo-phenol,9.313499,Log unit,Oc1ccc(I)cc1,,25,?C
CC1=CC(=CC(C)=C1O)C#N,"2,6-DIMETHYL-4-CYANOPHENOL",8.27,Log unit,Oc1c(cc(C#N)cc1C)C,,25,?C
CC1=CC(O)=CC(C)=C1C#N,"3,5-dimethyl-4-cyano-phenol",8.21,Log unit,Oc1cc(C)c(C#N)c(c1)C,,25,?C
OC1=CC(=CC=C1)N(=O)=O,m-nitro-phenol,8.355,Log unit,Oc1cccc(c1)N(=O)=O,,25,?C
OC1=CC=C(C=C1)N(=O)=O,p-nitro-phenol,7.145,Log unit,Oc1ccc(cc1)N(=O)=O,,25,?C
CC1=CC(O)=CC(C)=C1N(=O)=O,"3,5-dimethyl-4-nitro-phenol",8.24,Log unit,Oc1cc(C)c(N(=O)=O)c(c1)C,,25,?C
OC1=CC=C(C(=C1)N(=O)=O)N(=O)=O,"3,4-dinitro-phenol",5.42,Log unit,Oc1ccc(N(=O)=O)c(c1)N(=O)=O,,25,?C
OC1=CC(=C([O-])C=C1)N(=O)=O,mononitrohydrquinone,10,Log unit,Oc1ccc([O-])c(N(=O)=O)c1,,25,?C
OC1=C([O-])C(=CC=C1)N(=O)=O,3-nitropyrocatechine,11.8,Log unit,Oc1cccc(c1[O-])N(=O)=O,,25,?C
COC1=CC=CC(O)=C1,m-methoxy-phenol,9.651,Log unit,Oc1cccc(c1)OC,,25,?C
COC1=CC=C(O)C=C1,p-methoxy-phenol,10.12,Log unit,Oc1ccc(cc1)OC,,25,?C
NC(=O)C1=CC=CC=C1O,salicylamide,8.37,Log unit,Oc1ccccc1C(=O)N,,25,?C
CSC1=CC=CC(O)=C1,m-methyl-thio-phenol,9.53,Log unit,Oc1cc(SC)ccc1,,25,?C
CSC1=CC=C(O)C=C1,p-methyl-thio-phenol,9.53,Log unit,Oc1ccc(SC)cc1,,25,?C
CS(=O)(=O)C1=CC=CC(O)=C1,m-methylsulfonyl-phenol,9,Log unit,Oc1cc(S(=O)(=O)C)ccc1,,25,?C
CS(=O)(=O)C1=CC=C(O)C=C1,p-methylsulfonyl-phenol,7.83,Log unit,Oc1ccc(S(=O)(=O)C)cc1,,25,?C
CC1=CC(O)=CC(C)=C1S(C)(=O)=O,"4-methylsulfonyl-3,5-dimethyl-phenol",8.13,Log unit,Oc1cc(c(S(=O)(=O)C)c(c1)C)C,,25,?C
CCOP(=O)(OCC)C1=CC=CC(O)=C1,m-diethhydroxyphosphinyl-phenol,8.66,Log unit,Oc1cc(P(=O)(OCC)OCC)ccc1,,25,?C
CCOP(=O)(OCC)C1=CC=C(O)C=C1,p-diethhydroxyphosphinyl-phenol,8.28,Log unit,Oc1ccc(P(=O)(OCC)OCC)cc1,,25,?C
OC1=CC(Cl)=C(Cl)C(Cl)=C1,"3,4,5-trichloro-phenol",7.84,Log unit,Oc1cc(c(Cl)c(Cl)c1)Cl,,25,?C
OC1=CC=C(Cl)C(Cl)=C1,"3,4-dichloro-phenol",8.605,Log unit,Oc1ccc(Cl)c(Cl)c1,,25,?C
OC1=CC(Cl)=CC(Cl)=C1,"3,5-dichloro-phenol",8.18,Log unit,Oc1cc(Cl)cc(Cl)c1,,25,?C
OC1=CC(Br)=CC(Br)=C1,"3,5-dibromo-phenol",8.06,Log unit,Oc1cc(Br)cc(Br)c1,,25,?C
OC1=CC(I)=CC(I)=C1,"3,5-diiodo-phenol",8.1,Log unit,Oc1cc(I)cc(I)c1,,25,?C
OC1=CC(=CC(=C1)N(=O)=O)N(=O)=O,"3,5-dinitro-phenol",6.71,Log unit,Oc1cc(cc(c1)N(=O)=O)N(=O)=O,,25,?C
OCC1=CC=CC=C1,phenyl-methanol,15.4,Log unit,OCc1ccccc1,,25,?C
OC1=CC(=CC=C1)C#N,3-hydroxy-benzenecarbonitrile,8.59,Log unit,Oc1cccc(c1)C#N,,25,?C
OC1=CC=C(C=C1)C#N,p-cyano-phenol,7.9685,Log unit,Oc1ccc(cc1)C#N,,25,?C
CC1=CC(O)=CC=C1Cl,4-chloro-3-methyl-phenol,9.49,Log unit,Oc1ccc(Cl)c(c1)C,,25,?C
COC1=CC=C(O)C=C1Br,3-bromo-4-methoxy-phenol,9.16,Log unit,Oc1cc(Br)c(cc1)OC,,25,?C
OCCOC1=CC=CC=C1,2-phenoxy-ethanol,15.1,Log unit,OCCOc1ccccc1,,25,?C
CC1=CC(O)=CC(C)=C1C,"3,4,5-trimethyl-phenol",10.38,Log unit,Oc1cc(c(C)c(c1)C)C,,25,?C
OC1=C2NN=CC2=CC=C1,1h-indazol-7-ol,8.6,Log unit,Oc1c2[nH]ncc2ccc1,,25,?C
OC1=CC2=CC=CC=C2C(=C1)N(=O)=O,4-nitro-2-naphthol,8.09,Log unit,Oc1cc2ccccc2c(c1)N(=O)=O,,25,?C
OC1=CC2=C(C=CC=C2)C(Cl)=C1,4-chloro-2-naphthol,8.82,Log unit,Oc1cc(Cl)c2ccccc2c1,,25,?C
OC1=CC2=C(C=CC=C2)C(Br)=C1,4-bromo-1-naphthol,8.74,Log unit,Oc1cc(Br)c2ccccc2c1,,25,?C
OC1=CC2=C(C=CC=C2)C(I)=C1,4-iodo-2-naphthol,8.81,Log unit,Oc1cc(I)c2ccccc2c1,,25,?C
NC1=CC(O)=CC2=CC=CC=C12,4-amino-2-naphthol,3.45,Log unit,Nc1c2ccccc2cc(c1)O,,25,?C
NC1=CC(O)=CC2=CC=CC=C12,4-amino-2-naphthol,9.84,Log unit,Oc1cc2ccccc2c(c1)N,,25,?C
OC1=CC(=CC=C1Cl)C1=CC=CC=C1,4-chloro-biphenyl-3-ol,8.07,Log unit,Oc1c(Cl)ccc(c2ccccc2)c1,,25,?C
OC1=CC(=CC=C1N(=O)=O)C1=CC=CC=C1,4-nitro-biphenyl-3-ol,6.74,Log unit,Oc1cc(c2ccccc2)ccc1N(=O)=O,,25,?C
CC1=CC=CC=C1O,2-methyl-phenol,10.325,Log unit,Oc1ccccc1C,,25,?C
CC1=CC=CC(O)=C1C,"2,3-dimethyl-phenol",10.542,Log unit,Oc1cccc(c1C)C,,25,?C
COC1=C(C=CC(C)=C1)C(O)=O,2-methoxy-4-methyl-benzoic acid,4.38,Log unit,OC(=O)c1ccc(cc1OC)C,,25,?C
COC1=C(C=C(C)C=C1)C(O)=O,2-methoxy-5-methyl-benzoic acid,4.2,Log unit,OC(=O)c1c(ccc(c1)C)OC,,25,?C
COC1=CC=CC(C)=C1C(O)=O,2-Methoxy-6-methyl-benzoic acid,3.46,Log unit,OC(=O)c1c(cccc1OC)C,,25,?C
COC1=C(C)C(=CC=C1)C(O)=O,3-methoxy-2-methyl-benzoic acid,3.72,Log unit,OC(=O)c1cccc(OC)c1C,,25,?C
COC1=C(C)C=CC(=C1)C(O)=O,3-methoxy-4-methyl-benzoic acid,4.13,Log unit,OC(=O)c1ccc(c(c1)OC)C,,25,?C
COC1=CC(C(O)=O)=C(C)C=C1,5-methoxy-2-methyl-benzoic acid,3.84,Log unit,OC(=O)c1c(ccc(c1)OC)C,,25,?C
COC1=CC(C)=C(C=C1)C(O)=O,4-methoxy-2-methyl-benzoic acid,4.54,Log unit,OC(=O)c1ccc(cc1C)OC,,25,?C
COC1=C(C)C=C(C=C1)C(O)=O,4-Methoxy-3-methyl-benzoic acid,4.35,Log unit,OC(=O)c1ccc(OC)c(c1)C,,25,?C
OC(=O)CCC1=CC=CC=C1O,3-(2-hydroxyphenyl)-propanoic acid,4.75,Log unit,OC(=O)CCc1ccccc1O,,25,?C
COC1=CC=CC=C1C(O)C(O)=O,2-hydroxy-2-(2-methoxyphenyl)-acetic acid,3.64,Log unit,OC(=O)C(c1ccccc1OC)O,,25,?C
COC1=CC=C(C=C1)C(O)C(O)=O,2-hydroxy-2-(4-methoxyphenyl)-acetic acid,3.42,Log unit,OC(=O)C(c1ccc(cc1)OC)O,,25,?C
COC1=CC(CC(O)=O)=CC=C1O,2-(4-hydroxy-3-methoxyphenyl)-acetic acid,4.41,Log unit,OC(=O)Cc1ccc(O)c(c1)OC,,25,?C
CCOC1=CC=C(C(O)=O)C(O)=C1,4-ethoxy-2-hydroxy-benzoic acid,3.2,Log unit,OC(=O)c1c(O)cc(cc1)OCC,,25,?C
COC1=C(OC)C(=CC=C1)C(O)=O,"2,3-dimethoxy-benzoic acid",3.98,Log unit,OC(=O)c1cccc(OC)c1OC,,25,?C
COC1=CC(OC)=C(C=C1)C(O)=O,"2,4-dimethoxy-benzoic acid",4.36,Log unit,OC(=O)c1ccc(cc1OC)OC,,25,?C
COC1=CC=CC(OC)=C1C(O)=O,"2,6-dimethoxy-benzoic acid",3.44,Log unit,OC(=O)c1c(cccc1OC)OC,,25,?C
CCOC1=CC(C(O)=O)=C(C=C1)C(O)=O,"4-ethoxy-1,2-benzenedicarboxylic acid",3.04,Log unit,OC(=O)c1c(ccc(c1)OCC)C(=O)O,,25,?C
CCOC1=CC(C([O-])=O)=C(C=C1)C(O)=O,"4-ethoxy-1,2-benzenedicarboxylic acid",5.12,Log unit,OC(=O)c1ccc(cc1C(=O)[O-])OCC,,25,?C
COC1=C(OC)C=C(C=C1)C(O)=O,"3,4-Dimethoxy-benzoic acid",4.36,Log unit,OC(=O)c1ccc(OC)c(c1)OC,,25,?C
COC1=CC(=CC(OC)=C1)C(O)=O,"3,5-dimethoxy-benzoic acid",3.97,Log unit,OC(=O)c1cc(cc(c1)OC)OC,,25,?C
COC1=CC(=CC(OC)=C1O)C(O)=O,"4-Hydroxy-3,5-dimethoxy-benzoic acid",4.34,Log unit,OC(=O)c1cc(c(O)c(c1)OC)OC,,25,?C
COC1=CC(=CC(OC)=C1O)C([O-])=O,"4-Hydroxy-3,5-dimethoxy-benzoic acid",9.49,Log unit,Oc1c(cc(C(=O)[O-])cc1OC)OC,,25,?C
CCOC(=O)C(CC)(CC)C(O)=O,2-ethoxycarbonyl-2-ethyl-butanoic acid,3.54,Log unit,OC(=O)C(C(=O)OCC)(CC)CC,,25,?C
COC(=O)C(C)(C)C(C)(C)C(O)=O,"3-methoxycarbonyl-2,2,3-trimethyl-butanoic acid",4.98,Log unit,OC(=O)C(C)(C)C(C(=O)OC)(C)C,,25,?C
CC1=C(C=CC=C1C(O)=O)C#N,3-cyano-2-methyl-benzoic acid,3.16,Log unit,OC(=O)c1cccc(c1C)C#N,,25,?C
CC1=C(C=C(C=C1)C#N)C(O)=O,3-cyano-6-methyl-benzoic acid,3.31,Log unit,OC(=O)c1c(ccc(c1)C#N)C,,25,?C
CC1=C(C=CC(=C1)C#N)C(O)=O,4-cyano-2-methyl-benzoic acid,3.14,Log unit,OC(=O)c1ccc(cc1C)C#N,,25,?C
OC(=O)C=C(Cl)C1=CC=CC=C1,3-chloro-3-phenyl-propenoic acid,3.56,Log unit,OC(=O)C=C(Cl)c1ccccc1,,25,?C
OC(=O)C=CC1=CC=CC=C1F,3-(2-fluorophenyl)-propenoic acid,4.28,Log unit,OC(=O)C=Cc1c(F)cccc1,,25,?C
OC(=O)C=CC1=CC(Br)=CC=C1O,3-(5-bromo-2-hydroxyphenyl)-propenoic acid,3.62,Log unit,OC(=O)C=Cc1cc(Br)ccc1O,,25,?C
OC(=O)C1=CC(C=CN(=O)=O)=CC=C1,3-(2-nitrovinyl)-benzoic acid,3.87,Log unit,OC(=O)c1cccc(c1)C=CN(=O)=O,,25,?C
OC(=O)C1=CC=C(C=CN(=O)=O)C=C1,4-(2-nitrovinyl)-benzoic acid,3.94,Log unit,OC(=O)c1ccc(cc1)C=CN(=O)=O,,25,?C
OC(=O)C=CC1=CC(=CC=C1O)N(=O)=O,3-(2-hydroxy-5-nitrophenyl)-propenoic acid,3.54,Log unit,OC(=O)C=Cc1c(O)ccc(N(=O)=O)c1,,25,?C
CC(OC1=C(Cl)C=C(Cl)C=C1)C(O)=O,"2-(2,4-dichlorophenoxy)-propanoic acid",2.86,Log unit,OC(=O)C(Oc1c(cc(Cl)cc1)Cl)C,,25,?C
OC(=O)CCOC1=C(Cl)C=C(Cl)C=C1,"3-(2,4-dichlorophenoxy)-propanoic acid",4.42,Log unit,OC(=O)CCOc1c(cc(Cl)cc1)Cl,,25,?C