Smiles,Name,pKa,pKa Unit,Ionizable center smiles,IC group,Temperature,Temperature Unit
CN(C)C1=CC=C(C=CC2=CC=CC=C2C)C=C1,4-dimethylamino-2'-methylstilbene,4.67,Log unit,N(c1ccc(C=Cc2ccccc2C)cc1)(C)C,nr2,25,?C
CN1CCCCC(O)C(=O)CCCC1,1-methyl-6-hydroxy-7-oxoazacycloundecane,9.1,Log unit,N1(CCCCC(=O)C(O)CCCC1)C,nr2,25,?C
C1CCCNCC1,Hexahydroazepine,11.07,Log unit,N1CCCCCC1,nr2,25,?C
C1CNC1,AZETIDINE,11.165,Log unit,N1CCC1,nr2,25,?C
CN1CCC1,N-methylazetidine,10.4,Log unit,N1(CCC1)C,nr2,25,?C
C1CN1,aziridine  ,7.9,Log unit,N1CC1,nr2,25,?C
CCCCN1CC1,N-n-butylaziridine,7.86,Log unit,N1(CC1)CCCC,nr2,25,?C
CCC1CN1CC,"N,2-diethylaziridine",8.18,Log unit,N1(CC1CC)CC,nr2,25,?C
CC1(C)CN1,"2,2-Dimethylaziridine",8.625,Log unit,N1CC1(C)C,nr2,25,?C
CC1NC1C,"trans-2,3-dimethylaziridine",8.69,Log unit,N1C(C)C1C,nr2,25,?C
CCN1CC1,N-ethylaziridine,7.93,Log unit,N1(CC1)CC,nr2,25,?C
CCC1CN1,2-ETHYLAZIRIDINE,8.3,Log unit,N1CC1CC,nr2,25,?C
CN1CC1,N-Methylaziridine,7.86,Log unit,N1(CC1)C,nr2,25,?C
CC(C=C(C1=CC=CS1)C1=CC=CS1)N1CCCC(=O)CCC1,"octahydro-1-(1-methyl-3,3-dithienyl)prop-2-enylazocine",7.47,Log unit,N1(C(C=C(c2sccc2)c2sccc2)C)CCCC(=O)CCC1,nr2,25,?C
CN1CCCC(=O)CCC1,octahydro-1-methyl-5-oxoazocine,8.75,Log unit,N1(CCCC(=O)CCC1)C,nr2,25,?C
CCN1CCCC(O)C(=O)CCC1,1-ethyl-octahydro-5-hydroxy-6-oxoazonine,9.2,Log unit,N1(CCCC(=O)C(O)CCC1)CC,nr2,25,?C
CN1CCCC(O)C(=O)CCC1,octahydro-5-hydroxyl-1-methyl-6-oxoazonine,9.2,Log unit,N1(CCCC(=O)C(O)CCC1)C,nr2,25,?C
[NH3+]CCNCC1=CC=CO1,2-(2-aminoethylaminomethyl)furan,6.56,Log unit,N(Cc1occc1)CC[NH3+],nr2,25,?C
NCC1=CC=CO1,2-AMINOMETHYLFURAN,8.89,Log unit,NCc1occc1,nr2,25,?C
C1CCNCC1,piperidine,11.115,Log unit,N1CCCCC1,nr2,25,?C
CC(=O)C(CN1CCCCC1)C1=CC=CC=C1,N-(2-acetyl-2-phenyl)ethylpiperidine,8.8,Log unit,N1(CC(c2ccccc2)C(=O)C)CCCCC1,nr2,25,?C
C=CCN1CCCCC1,1-ALLYLPIPERIDINE,9.639999,Log unit,N1(CCCCC1)CC=C,nr2,25,?C
NCCN1CCCCC1,1-(2-Aminoethyl)piperidine,9.675,Log unit,N1(CCCCC1)CCN,nr2,25,?C
CC1CCCCN1CCCOC1=CC=CC=C1,1-(3-benzoxypropyl)-2-methylpiperidine,9.58,Log unit,N1(CCCOc2ccccc2)CCCCC1C,nr2,25,?C
CC1CC(CC(C)(C)N1)OC1=CC=CC=C1,"4-benzoxy-2,2,6-trimethylpiperidine",9.54,Log unit,N1C(CC(Oc2ccccc2)CC1(C)C)C,nr2,25,?C
O=C(CC1=CC=CC=C1)C(CN1CCCCC1)C1=CC=CC=C1,N-(2-benzylcarbonyl-2-phenyl)ethylpiperidine,9.03,Log unit,N1(CC(C(=O)Cc2ccccc2)c2ccccc2)CCCCC1,nr2,25,?C
CCCCN1CCCCC1,1-n-butylpiperidine,10.45,Log unit,N1(CCCCC1)CCCC,nr2,25,?C
CCCCN1CCCCC1C,1-n-butyl-2-methylpiperidine,10.7,Log unit,N1(CCCCC1C)CCCC,nr2,25,?C
N#CC(CCN1CCCCC1)(C1=CC=CC=C1)C1=CC=CC=C1,"1-(3-cyano-3,3-diphenyl)propylpiperidine",8.02,Log unit,N1(CCC(c2ccccc2)(c2ccccc2)C#N)CCCCC1,nr2,25,?C
N#CCN1CCCCC1,1-Cyanomethylpiperidine,4.525,Log unit,N1(CCCCC1)CC#N,nr2,25,?C
CC(CC(C#N)(C1=CC=CC=C1)C1=CC=CC=C1)N1CCCCC1,"1-(3-cyano-1-methyl-3,3-diphenyl)propylpiperidine",8.93,Log unit,N1(C(CC(c2ccccc2)(c2ccccc2)C#N)C)CCCCC1,nr2,25,?C
CC(CN1CCCCC1)C(C#N)(C1=CC=CC=C1)C1=CC=CC=C1,"1-(3-cyano-2-methyl-3,3-diphenyl)propylpiperidine",8.16,Log unit,N1(CC(C(c2ccccc2)(c2ccccc2)C#N)C)CCCCC1,nr2,25,?C
CC1CCCCN1C,"1,2-DIMETHYLPIPERIDINE",10.22,Log unit,N1(CCCCC1C)C,nr2,25,?C
CC1CCCN(C)C1,"1,3-dimethylpiperidine",10.02,Log unit,N1(CCCC(C)C1)C,nr2,25,?C
CC1CCN(C)CC1,"1,4-dimethylpiperidine",10.05,Log unit,N1(CCC(CC1)C)C,nr2,25,?C
CC1CCNC(C)C1,"2,4-Dimethylpiperidine",10.7,Log unit,N1CCC(C)CC1C,nr2,25,?C
CC1(C)CCCNC1,"3,3-Dimethylpiperidine",10.38,Log unit,N1CCCC(C1)(C)C,nr2,25,?C
CN(C)CCN1CCCCC1,1-(2-dimethylamino)ethylpiperidine,9.403,Log unit,N1(CCCCC1)CCN(C)C,nr2,25,?C
O=C(CCN1CCCCC1)C(C1=CC=CC=C1)C1=CC=CC=C1,1-(2-diphenylmethylcarbonyl)ethylpiperidine,9.45,Log unit,N1(CCC(=O)C(c2ccccc2)c2ccccc2)CCCCC1,nr2,25,?C
C(CN1CCCCC1)C(C1=CC=CC=C1)C1=CC=CC=C1,"1-(3,3-diphenyl)propylpiperidine",8.91,Log unit,N1(CCC(c2ccccc2)c2ccccc2)CCCCC1,nr2,25,?C
CCN1CCCCC1,1-Ethylpiperidine,10.45,Log unit,N1(CC)CCCCC1,nr2,25,?C
CCC1CCNCC1,4-Ethylpiperidine,10.89,Log unit,N1CCC(CC)CC1,nr2,25,?C
CCN1CCCC(C)C1,1-Ethyl-3-methylpiperidine,10.33,Log unit,N1(CCCC(C)C1)CC,nr2,25,?C
CCN1CCC(C)CC1,1-ethyl-4-methylpiperidine,10.28,Log unit,N1(CCC(CC1)C)CC,nr2,25,?C
CCC(=O)C(CCN1CCCCC1)(C1=CC=CC=C1)C1=CC=CC=C1,"1-(3-ethylcarbonyl-3,3-diphenyl)propylpiperidine",8.81,Log unit,N1(CCC(c2ccccc2)(c2ccccc2)C(=O)CC)CCCCC1,nr2,25,?C
CCC(=O)C(C(C)CN1CCCCC1)(C1=CC=CC=C1)C1=CC=CC=C1,"1-(3-ethylcarbonyl-2-methyl-3,3-diphenyl)propylpiperidine",9.4,Log unit,N1(CC(C(c2ccccc2)(c2ccccc2)C(=O)CC)C)CCCCC1,nr2,25,?C
CC(CC1=CC=CC=C1)N(C)C,(2-dimethylamino)propylbenzene,9.4,Log unit,N(C(Cc1ccccc1)C)(C)C,nr2,25,?C
CC(C)NCC(O)C1=CC(F)=CC=C1,1-fluoro-3-(1-hydroxy-2-isopropylamino)ethylbenzene,9.4,Log unit,N(CC(c1cc(F)ccc1)O)C(C)C,nr2,25,?C
CNCC(O)C1=CC(O)=CC=C1,1-hydroxy-3-(1-hydroxy-2-methylamino)ethylbenzene,8.875,Log unit,N(CC(c1cc(O)ccc1)O)C,nr2,25,?C
CNCC(O)C1=CC=C(O)C=C1,1-hydroxy-4-(1-hydroxy-2-methylamino)ethylbenzene,9.7,Log unit,N(CC(c1ccc(O)cc1)O)C,nr2,25,?C
CC(C)NCC(O)C1=CC=C(O)C=C1,1-hydroxy-4-(1-hydroxy-2-isopropylamino)ethylbenzene,9.57,Log unit,N(CC(c1ccc(O)cc1)O)C(C)C,nr2,25,?C
CC(C)NCC(=O)C1=CC=C(O)C=C1,1-hydroxy-4-(isopropylamino)acetylbenzene,7.585,Log unit,Oc1ccc(C(=O)CNC(C)C)cc1,oh,25,?C
CC(C)NCC(=O)C1=CC=C(O)C=C1,1-hydroxy-4-(isopropylamino)acetylbenzene,9.58,Log unit,N(CC(=O)c1ccc(O)cc1)C(C)C,nr2,25,?C
CC(C)[NH2+]CCC1=CC=C(O)C=C1,1-hydroxy-4-(2-isopropylamino)ethylbenzene,9.594999,Log unit,Oc1ccc(CC[NH2+]C(C)C)cc1,oh,25,?C
CC(C)NCCC1=CC=C(O)C=C1,1-hydroxy-4-(2-isopropylamino)ethylbenzene,10.75,Log unit,N(CCc1ccc(O)cc1)C(C)C,nr2,25,?C
CNCC(O)C1=CC=CC=C1,(1-hydroxy-2-methylamino)ethylbenzene,9.37,Log unit,N(CC(c1ccccc1)O)C,nr2,25,?C
C[NH2+]CCC1=CC=C(O)C=C1,1-hydroxy-4-(2-methylamino)ethyl,9.36,Log unit,Oc1ccc(CC[NH2+]C)cc1,oh,25,?C
CNC(C)C(O)C1=CC=CC=C1,(1-hydroxy-2-methylamino)propylbenzene,9.3,Log unit,N(C(C(c1ccccc1)O)C)C,nr2,25,?C
CC(C)NCCC1=CC=CC=C1,(2-isopropylamino)ethylbenzene,10.02,Log unit,N(CCc1ccccc1)C(C)C,nr2,25,?C
CNCCCCC1=CC=CC=C1,(4-methylamino)butylbenzene,10.8,Log unit,N(CCCCc1ccccc1)C,nr2,25,?C
CNCCC1=CC=CC=C1,(2-methylamino)ethylbenzene,10.195,Log unit,N(CCc1ccccc1)C,nr2,25,?C
CNC(C)CC1=CC=CC=C1,(2-methylaimno)propylbenzene,9.87,Log unit,N(C(Cc1ccccc1)C)C,nr2,25,?C
CNCCCC1=CC=CC=C1,(3-methylamino)propylbenzene,10.64,Log unit,N(CCCc1ccccc1)C,nr2,25,?C
CNCC(C)C1=CC=CC=C1,(1-methyl-2-methylamino)ethylbenzene,9.88,Log unit,N(CC(c1ccccc1)C)C,nr2,25,?C
NCC1=CC=CC=C1,benzylamine,9.360001,Log unit,NCc1ccccc1,nr2,25,?C
CC(O)CN(CC(C)O)CC1=CC=CC=C1,"N,N-bis(2-hydroxypropyl)benzylamine",7.5,Log unit,N(Cc1ccccc1)(CC(O)C)CC(O)C,nr2,25,?C
O=N(=O)C1=CC=C(CNC(CC2=CC=CC=C2)CC2=CC=CC=C2)C=C1,N-(dibenzylmethyl)-p-nitrobenzylamine,7.7,Log unit,N(C(Cc1ccccc1)Cc1ccccc1)Cc1ccc(N(=O)=O)cc1,nr2,25,?C
NCC1=CC(Br)=CC=C1,3-bromobenzylamine,8.98,Log unit,NCc1cc(Br)ccc1,nr2,25,?C
NCC1=CC=C(Br)C=C1,4-Bromobenzylamine,9.13,Log unit,NCc1ccc(Br)cc1,nr2,25,?C
NCC1=CC(Cl)=CC=C1,3-Chlorobenzylamine,9,Log unit,NCc1cc(Cl)ccc1,nr2,25,?C
NCC1=CC=C(Cl)C=C1,4-Chlorobenzylamine,9.190001,Log unit,NCc1ccc(Cl)cc1,nr2,25,?C
NC(C#N)C1=CC=CC=C1,alpha-cyanobenzylamine,4.4,Log unit,NC(c1ccccc1)C#N,nr2,25,?C
NCC1=CC=C(C=C1)C#N,4-cyano-benzylamine,8.52,Log unit,NCc1ccc(cc1)C#N,nr2,25,?C
NC(CC#N)C1=CC=CC=C1,alpha-cyanomethylbenzylamine,6.7,Log unit,NC(CC#N)c1ccccc1,nr2,25,?C
CCN(CC)CC1=CC=CC=C1,"N,N-DIETHYLBENZYLAMINE",9.44,Log unit,N(Cc1ccccc1)(CC)CC,nr2,25,?C
COC1=C(OC)C(CN)=CC=C1,"2,3-dimethoxy-benzylamine",9.41,Log unit,NCc1cccc(OC)c1OC,nr2,25,?C
COC1=C(OC)C=C(CN)C=C1,"3,4-dimethoxy-benzylamine",9.39,Log unit,NCc1ccc(OC)c(OC)c1,nr2,25,?C
CN(C)CC1=CC=CC=C1,"N,N-DIMETHYLBENZYLAMINE",8.969999,Log unit,N(Cc1ccccc1)(C)C,nr2,25,?C
CCNCC1=CC=CC=C1,N-Ethylbenzylamine,9.64,Log unit,N(Cc1ccccc1)CC,nr2,25,?C
COC1=C(O)C(CN)=CC=C1,2-hydroxy-3-methoxy-benzylamine,11.06,Log unit,Oc1c(cccc1CN)OC,oh,25,?C
COC1=CC(CN)=CC=C1O,4-hydroxy-3-methoxy-benzylamine,10.5,Log unit,Oc1ccc(CN)cc1OC,oh,25,?C
NCC1=CC(F)=CC=C1,3-Fluorobenzylamine,9.04,Log unit,NCc1cc(F)ccc1,nr2,25,?C
NCC1=CC=C(F)C=C1,4-Fluorobenzylamine,9.3,Log unit,NCc1ccc(F)cc1,nr2,25,?C
COC1=CC=CC=C1CN,2-Methoxybenzylamine,9.7,Log unit,NCc1ccccc1OC,nr2,25,?C
COC1=CC(CN)=CC=C1,3-methoxy-benzylamine,9.15,Log unit,NCc1cccc(c1)OC,nr2,25,?C
COC1=CC=C(CN)C=C1,4-Methoxy-benzylamine,9.51,Log unit,NCc1ccc(cc1)OC,nr2,25,?C
CNCC1=CC=CC=C1,N-Methylbenzylamine,9.55,Log unit,N(Cc1ccccc1)C,nr2,25,?C
CC1=CC=CC=C1CN,2-Methylbenzylamine,9.19,Log unit,NCc1ccccc1C,nr2,25,?C
CC1=CC(CN)=CC=C1,3-methyl-benzylamine,9.389999,Log unit,NCc1cccc(c1)C,nr2,25,?C
CC1=CC=C(CN)C=C1,4-methyl-benzylamine,9.45,Log unit,NCc1ccc(cc1)C,nr2,25,?C
NCC1=CC=C2OCOC2=C1,"3,4-Methylenedioxybenzylamine",9.37,Log unit,NCc1ccc2OCOc2c1,nr2,25,?C
NCC1=CC(=CC=C1)N(=O)=O,3-nitrobenzlyamine,8.585,Log unit,NCc1cccc(c1)N(=O)=O,nr2,25,?C
NCC1=CC=C(C=C1)N(=O)=O,4-Nitrobenzylamine,8.505,Log unit,N(=O)(=O)c1ccc(cc1)CN,nr2,25,?C
NCC1=C(F)C(F)=C(F)C(F)=C1F,"2,3,4,5,6-pentafluorobenzylamine",7.67,Log unit,NCc1c(c(c(F)c(F)c1F)F)F,nr2,25,?C
CCCNCC1=CC=CC=C1,N-Propylbenzylamine,9.58,Log unit,N(Cc1ccccc1)CCC,nr2,25,?C
NC1=CC=CC=C1C1=CC=CC=C1,2-Aminobiphenyl,3.825,Log unit,Nc1c(c2ccccc2)cccc1,nr2,25,?C
NC1=CC(=CC=C1)C1=CC=CC=C1,3-AMINOBIPHENYL,4.25,Log unit,Nc1cc(c2ccccc2)ccc1,nr2,25,?C
NC1=CC=C(C=C1)C1=CC=CC=C1,4-Aminobiphenyl,4.285,Log unit,Nc1ccc(c2ccccc2)cc1,nr2,25,?C
COC1=CC=C(C=C1)C1=CC=C(N)C=C1,4-amino-4'-methoxybiphenyl,4.25,Log unit,Nc1ccc(cc1)c1ccc(OC)cc1,nr2,25,?C
NC1=CC=C(C=C1)C1=CC=C(C=C1)N(=O)=O,4-amino-4'-nitropiphenyl,3.765,Log unit,N(=O)(=O)c1ccc(c2ccc(cc2)N)cc1,nr2,25,?C
NC1=CC=C(C=C1)C1=CC=C(N)C=C1,"4,4'-Diaminobiphenyl",5.02,Log unit,Nc1ccc(c2ccc(cc2)N)cc1,nr2,25,?C
CC1=CC=C(N)C2=CC=CC(C)=C12,"1-amino-4,5-dimethylnapthalene",4.42,Log unit,Nc1c2cccc(C)c2c(cc1)C,nr2,25,?C
CC1=CC(N)=CC2=CC=CC(C)=C12,"2-amino-4,5-dimethylnaphthalene",4.27,Log unit,Nc1cc2cccc(C)c2c(c1)C,nr2,25,?C
CC1=CC=CC(N)=C1C1=C(N)C=CC=C1C,"2,2'-diamino-6,6'-dimethylbiphenyl",3.7,Log unit,Nc1cccc(c1c1c(cccc1C)N)C,nr2,25,?C
CC1=CC=C(N)C=C1C1=C(C)C=CC(N)=C1,"3,3'-diamino-6,6'-dimethylbiphenyl",5,Log unit,Nc1cc(c2c(ccc(c2)N)C)c(cc1)C,nr2,25,?C
CC1=CC(N)=CC=C1C1=C(C)C=C(N)C=C1,"4,4'-Diamino-2,2'-dimethylbiphenyl",4.9,Log unit,Nc1ccc(c2ccc(cc2C)N)c(c1)C,nr2,25,?C
CC1=CC(=CC=C1N)C1=CC(C)=C(N)C=C1,"4,4'-Diamino-3,3'-dimethylbiphenyl",4.5,Log unit,Nc1ccc(c2ccc(c(c2)C)N)cc1C,nr2,25,?C
CN(C)C1=CC=C(C=C1)C(O)C1=CC=C(C=C1)N(C)C,"4,4'-bisdimethylaminodiphenylcarbinol",5.31,Log unit,N(c1ccc(C(c2ccc(cc2)N(C)C)O)cc1)(C)C,nr2,25,?C
NC1=C2CC3=CC=CC=C3C2=CC=C1,1-Aminofluorene,3.77,Log unit,Nc1c2c(c3ccccc3C2)ccc1,nr2,25,?C
NC1=CC=C2C(CC3=CC=CC=C23)=C1,2-Aminofluorene,4.53,Log unit,Nc1ccc2c3ccccc3Cc2c1,nr2,25,?C
NC1=CC=C2CC3=CC=CC=C3C2=C1,3-Aminofluorene,4.82,Log unit,Nc1cc2c3ccccc3Cc2cc1,nr2,25,?C
NC1=C2C(CC3=CC=CC=C23)=CC=C1,4-Aminofluorene,3.455,Log unit,Nc1c2c3ccccc3Cc2ccc1,nr2,25,?C
NC1=CC=C2C(CC3=CC=CC=C23)=C1O,2-amino-1-hydroxyfluorene,4.82,Log unit,Nc1ccc2c3ccccc3Cc2c1O,nr2,25,?C
NC1=CC=C2C(CC3=CC=CC(O)=C23)=C1,2-amino-5-hydroxyfluorene,4.73,Log unit,Nc1ccc2c3c(cccc3Cc2c1)O,nr2,25,?C
NC1=CC2=C(C=C1)C1=CC(O)=CC=C1C2,2-amino-6-hydroxyfluorene,4.63,Log unit,Nc1ccc2c(Cc3c2cc(cc3)O)c1,nr2,25,?C
NC1=CC=C2C(CC3=C2C=CC(O)=C3)=C1,2-amino-7-hydroxyfluorene,4.88,Log unit,Nc1ccc2c3ccc(O)cc3Cc2c1,nr2,25,?C
NC1CCC2=CC=CC=C12,1-Aminoindan,9.21,Log unit,NC1c2ccccc2CC1,nr2,25,?C
NC1CC2=CC=CC=C2C1,2-Aminoindan,9.57,Log unit,NC1Cc2ccccc2C1,nr2,25,?C
NC1=CC2=C(CCC2)C=C1,5-Aminoindan,5.31,Log unit,Nc1ccc2CCCc2c1,nr2,25,?C
NC1CC2=CC=CC=C2C1O,2-amino-3-hydroxyindan,8.13,Log unit,NC1Cc2ccccc2C1O,nr2,25,?C
NC1=CC=CC2=CC=CC=C12,1-Aminonaphthalene,3.94,Log unit,Nc1c2ccccc2ccc1,nr2,25,?C
NC1=CC2=CC=CC=C2C=C1,2-amino-naphthalene,4.15,Log unit,Nc1cc2ccccc2cc1,nr2,25,?C
NC1=C2C=CC=CC2=CC(Br)=C1,1-amino-3-bromo-naphthalene,2.67,Log unit,Nc1cc(Br)cc2c1cccc2,nr2,25,?C
NC1=CC=C(Br)C2=C1C=CC=C2,1-Amino-4-bromonaphthalene,3.21,Log unit,Nc1ccc(Br)c2ccccc12,nr2,25,?C
NC1=CC2=C(C=CC=C2)C(Br)=C1,2-amino-4-bromo-naphthalene,3.4,Log unit,Nc1cc(Br)c2ccccc2c1,nr2,25,?C
NC1=C2C=CC=CC2=CC(Cl)=C1,1-amino-3-chloronaphthalene,2.69,Log unit,Nc1cc(Cl)cc2c1cccc2,nr2,25,?C
NC1=CC=CC2=C1C=CC=C2Cl,1-amino-5-chloro-naphthalene,3.34,Log unit,Nc1c2c(c(Cl)ccc2)ccc1,nr2,25,?C
NC1=CC=CC2=CC(Cl)=CC=C12,1-amino-6-chloronaphthalene,3.48,Log unit,Nc1c2ccc(Cl)cc2ccc1,nr2,25,?C
NC1=CC=CC2=CC=C(Cl)C=C12,1-amino-7-chloronaphthalene,3.48,Log unit,Nc1c2cc(Cl)ccc2ccc1,nr2,25,?C
NC1=CC2=C(C=CC=C2)C(Cl)=C1,2-amino-4-chloro-naphthalene,3.38,Log unit,Nc1cc(Cl)c2ccccc2c1,nr2,25,?C
NC1=CC2=CC(Cl)=CC=C2C=C1,2-amino-7-chloro-naphthalene,3.71,Log unit,Nc1cc2cc(Cl)ccc2cc1,nr2,25,?C
NC1=CC(=CC2=CC=CC=C12)C#N,1-amino-3-cyanonaphthalene,2.26,Log unit,Nc1c2ccccc2cc(c1)C#N,nr2,25,?C
NC1=CC2=CC=CC=C2C(=C1)C#N,2-amino-4-cyano-naphthalene,2.66,Log unit,Nc1cc2ccccc2c(c1)C#N,nr2,25,?C
NC1=CC(O)=C(O)C2=CC=CC=C12,"1-amino-3,4-dihydroxynaphthalene",4.41,Log unit,Nc1c2ccccc2c(O)c(O)c1,nr2,25,?C
NC1=CC(O)=C(O)C2=CC=CC=C12,"1-amino-3,4-dihydroxynaphthalene",9.32,Log unit,Oc1c2ccccc2c(cc1O)N,oh,25,?C
NC1=C(O)C2=CC=CC=C2C(O)=C1,"2-amino-1,4-dihydroxynaphthalene",4.04,Log unit,Nc1c(c2ccccc2c(c1)O)O,nr2,25,?C
NC1=C(O)C2=CC=CC=C2C([O-])=C1,"2-amino-1,4-dihydroxynaphthalene",11.27,Log unit,Oc1c2ccccc2c(cc1N)[O-],oh,25,?C
NC1=CC(O)=CC2=CC=CC=C12,1-amino-3-hydroxy-naphthalene,3.3,Log unit,Nc1c2ccccc2cc(c1)O,nr2,25,?C
NC1=CC=CC2=C(O)C=CC=C12,1-Amino-5-hydroxynaphthalene,3.96,Log unit,Nc1c2cccc(O)c2ccc1,nr2,25,?C
NC1=C2C=CC(O)=CC2=CC=C1,1-amino-6-hydroxynaphthalene,3.97,Log unit,Nc1cccc2c1ccc(c2)O,nr2,25,?C
NC1=C2C=C(O)C=CC2=CC=C1,1-Amino-7-hydroxynaphthalene,4.2,Log unit,Nc1cccc2c1cc(O)cc2,nr2,25,?C
NC1=CC2=CC=CC(O)=C2C=C1,2-amino-4-hydroxy-naphthalene,3.45,Log unit,Nc1cc2cccc(O)c2cc1,nr2,25,?C
NC1=CC2=CC=CC(O)=C2C=C1,2-amino-5-hydroxy-naphthalene,9.84,Log unit,Oc1cccc2c1ccc(c2)N,oh,25,?C
NC1=CC2=CC=CC(O)=C2C=C1,2-amino-5-hydroxy-naphthalene,4.07,Log unit,Nc1cc2cccc(O)c2cc1,nr2,25,?C
NC1=CC2=C(C=C1)C=CC(O)=C2,2-amino-7-hydroxy-naphthalene,4.25,Log unit,Nc1cc2cc(ccc2cc1)O,nr2,25,?C
NC1=CC(=CC2=CC(=CC(O)=C12)S([O-])(=O)=O)S([O-])(=O)=O,"1-amino-8-hydroxy-3,6-disulphonaphthalene",3.627,Log unit,Nc1c2c(cc(S(=O)(=O)[O-])cc2cc(c1)S(=O)(=O)[O-])O,nr2,25,?C
NC1=CC=CC=C1N(=O)=O,2-nitroaniline,-0.255,Log unit,N(=O)(=O)c1ccccc1N,nr2,25,?C
NC1=CC(=CC=C1)N(=O)=O,3-NITRO-ANILINE,2.468,Log unit,Nc1cccc(c1)N(=O)=O,nr2,25,?C
NC1=CC=C(C=C1)N(=O)=O,4-NITRO-ANILINE,1.02,Log unit,N(=O)(=O)c1ccc(cc1)N,nr2,25,?C
NC1=CC=C(CC2=CC=C(C=C2)N(=O)=O)C=C1,4-(p-nitro)benzylaniline,4.45,Log unit,N(=O)(=O)c1ccc(Cc2ccc(cc2)N)cc1,nr2,25,?C
O=N(=O)C1=CC=C(NC2=CC=C(C=C2)N(=O)=O)C=C1,4-nitro-N-(4-nitro)phenylaniline,-6.2,Log unit,N(=O)(=O)c1ccc(Nc2ccc(N(=O)=O)cc2)cc1,nr2,25,?C
O=N(=O)C1=CC=C(NC2=CC=CC=C2)C=C1,N-(4-nitro)phenylaniline,-2.35,Log unit,N(c1ccccc1)c1ccc(N(=O)=O)cc1,nr2,25,?C
NC1=CC=C(C=C1N(=O)=O)C1=CC=CC=C1,2-Nitro-4-phenylaniline,-0.82,Log unit,Nc1ccc(c2ccccc2)cc1N(=O)=O,nr2,25,?C
NC1=CC=C(SC2=CC=C(C=C2)N(=O)=O)C=C1,4-(p-nitro)phenylthioaniline,2.99,Log unit,Nc1ccc(cc1)Sc1ccc(N(=O)=O)cc1,nr2,25,?C
NC1=C(C=C(C=C1)C(F)(F)F)N(=O)=O,2-Nitro-4-trifluoromethylaniline,-2.28,Log unit,Nc1ccc(cc1N(=O)=O)C(F)(F)F,nr2,25,?C
NC1=CC(=CC(=C1)C(F)(F)F)N(=O)=O,3-nitro-5-trifluoromethylaniline,0.82,Log unit,Nc1cc(cc(c1)C(F)(F)F)N(=O)=O,nr2,25,?C
NC1=CC(=C(C=C1)N(=O)=O)C(F)(F)F,4-Nitro-3-trifluoromethylaniline,-0.05,Log unit,N(=O)(=O)c1ccc(cc1C(F)(F)F)N,nr2,25,?C
CCCN(CCC)C1=CC=C(C=C1)N=O,"4-nitroso-N,N-di-n-propylaniline",4.17,Log unit,N(c1ccc(N=O)cc1)(CCC)CCC,nr2,25,?C
NC1=C(F)C(F)=C(F)C(F)=C1F,"1,2,3,4,5-pentafluoroaniline",-0.28,Log unit,Nc1c(c(c(F)c(F)c1F)F)F,nr2,25,?C
NC1=CC(OC(F)(F)C(F)(F)F)=CC=C1,3-pentafluoroethoxyaniline,3.24,Log unit,Nc1cccc(OC(F)(F)C(F)(F)F)c1,nr2,25,?C
NC1=CC=C(OC(F)(F)C(F)(F)F)C=C1,4-pentafluoroethoxyaniline,3.78,Log unit,Nc1ccc(cc1)OC(F)(F)C(F)(F)F,nr2,25,?C
CCC(C)(C)NC1=CC=CC=C1,N-t-pentylaniline,6.75,Log unit,N(c1ccccc1)C(C)(C)CC,nr2,25,?C
N(C1=CC=CC=C1)C1=CC=CC=C1,N-Phenylaniline,0.78,Log unit,N(c1ccccc1)c1ccccc1,nr2,25,?C
NC1=CC=CC=C1SC1=CC=CC=C1,2-phenylthioaniline,2.5,Log unit,Nc1c(Sc2ccccc2)cccc1,nr2,25,?C
NC1=CC=C(SC2=CC=CC=C2)C=C1,4-phenylthioaniline,3.8,Log unit,Nc1ccc(Sc2ccccc2)cc1,nr2,25,?C
CCCOC(=O)C1=CC=C(N)C=C1,4-propoxycarbonylaniline,2.49,Log unit,Nc1ccc(cc1)C(=O)OCCC,nr2,25,?C
CCCNC1=CC=CC=C1,N-n-Propylaniline,4.8,Log unit,N(c1ccccc1)CCC,nr2,25,?C
CCCC1=CC=CC=C1N,2-n-propylaniline,4.36,Log unit,Nc1ccccc1CCC,nr2,25,?C
NC1=CC(OC(F)(F)C(F)F)=CC=C1,"3-(1,1,2,2-tetrafluoro)ethoxyaniline",3.38,Log unit,Nc1cccc(OC(F)(F)C(F)F)c1,nr2,25,?C
NC1=CC=C(OC(F)(F)C(F)F)C=C1,"4-(1,1,2,2-tetrafluoro)ethoxyaniline",3.98,Log unit,Nc1ccc(cc1)OC(F)(F)C(F)F,nr2,25,?C
NC1=CC(SC(F)(F)C(F)F)=CC=C1,"3-(1,1,2,2-tetrafluoro)ethylthioaniline",3.39,Log unit,Nc1cc(SC(F)(F)C(F)F)ccc1,nr2,25,?C
NC1=CC=C(SC(F)(F)C(F)F)C=C1,"4-(1,1,2,2-tetrafluoro)ethylthioaniline",2.87,Log unit,Nc1ccc(SC(F)(F)C(F)F)cc1,nr2,25,?C
CN(C)C1=C(C)C=CC=C1C,"N,N,2,6-Tetramethylaniline",5.56,Log unit,N(c1c(cccc1C)C)(C)C,nr2,25,?C
CC1=CC(C)=C(C)C(N)=C1C,"2,3,5,6-tetramethylaniline",4.3,Log unit,Nc1c(c(cc(c1C)C)C)C,nr2,25,?C
CC1=C(C)C(=C(C)C(C)=C1N)N(=O)=O,"2,3,5,6-TETRAMETHYL-4-NITROANILINE",2.36,Log unit,N(=O)(=O)c1c(c(c(N)c(c1C)C)C)C,nr2,25,?C
NC1=CC=C(SC#N)C=C1,4-thiocyanatoaniline,2.9,Log unit,Nc1ccc(SC#N)cc1,nr2,25,?C
NC1=C(Cl)C=C(Cl)C(Cl)=C1,"2,4,5-Trichloroaniline",1.09,Log unit,Nc1c(cc(Cl)c(Cl)c1)Cl,nr2,25,?C
NC1=C(Cl)C=C(Cl)C=C1Cl,"2,4,6-trichloroaniline",-0.03,Log unit,Nc1c(cc(Cl)cc1Cl)Cl,nr2,25,?C
NC1=CC=CC=C1OC(F)(F)F,2-trifluoromethoxyaniline,2.44,Log unit,Nc1ccccc1OC(F)(F)F,nr2,25,?C
NC1=CC(OC(F)(F)F)=CC=C1,3-trifluoromethoxyaniline,3.25,Log unit,Nc1cccc(c1)OC(F)(F)F,nr2,25,?C
NC1=CC=C(OC(F)(F)F)C=C1,4-trifluoromethoxyaniline,3.82,Log unit,Nc1ccc(cc1)OC(F)(F)F,nr2,25,?C
NC1=CC(=CC=C1)C(F)(F)F,3-trifluoromethyl-aniline,3.49,Log unit,Nc1cccc(C(F)(F)F)c1,nr2,25,?C
NC1=CC=C(C=C1)C(F)(F)F,4-trifluoromethyl-aniline,2.45,Log unit,Nc1ccc(cc1)C(F)(F)F,nr2,25,?C
NC1=CC(=CC=C1)S(=O)(=O)C(F)(F)F,3-trifluoromethylsulphonylaniline,1.79,Log unit,Nc1cc(S(=O)(=O)C(F)(F)F)ccc1,nr2,25,?C
NC1=CC=C(C=C1)S(=O)(=O)C(F)(F)F,4-trifluoromethylsulphonylaniline,-0.01,Log unit,Nc1ccc(S(=O)(=O)C(F)(F)F)cc1,nr2,25,?C
NC1=CC(SC(F)(F)F)=CC=C1,3-trifluoromethylthioaniline,3.3,Log unit,Nc1cc(SC(F)(F)F)ccc1,nr2,25,?C
CN(C)C1=CC=CC=C1C,"N,N,2-TRIMETHYLANILINE",5.895,Log unit,N(c1ccccc1C)(C)C,nr2,25,?C
CN(C)C1=CC=CC(C)=C1,"N,N,3-Trimethylaniline",5.23,Log unit,N(c1cccc(c1)C)(C)C,nr2,25,?C
CN(C)C1=CC=C(C)C=C1,"N,N,4-TRIMETHYLANILINE",5.6195,Log unit,N(c1ccc(cc1)C)(C)C,nr2,25,?C
CNC1=C(C)C=CC=C1C,"N,2,6-trimethylaniline",5.3,Log unit,N(c1c(cccc1C)C)C,nr2,25,?C
CC1=CC(C)=C(N)C(C)=C1,"2,4,6-Trimethylaniline",4.375,Log unit,Nc1c(cc(cc1C)C)C,nr2,25,?C
CC1=CC(N)=CC(C)=C1C,"3,4,5-trimethyl-aniline",5.12,Log unit,Nc1cc(c(c(c1)C)C)C,nr2,25,?C
NC1=CC=C(C=C1)N=NC1=CC=CC=C1,4-Aminoazobenzene,3.07,Log unit,Nc1ccc(N=Nc2ccccc2)cc1,nr2,25,?C
CC1=CC(=CC=C1)N=NC1=CC=C(N)C=C1,4-amino-3'-methylazobenzene,2.88,Log unit,Nc1ccc(N=Nc2cccc(c2)C)cc1,nr2,25,?C
CC1=CC=C(C=C1)N=NC1=CC=C(N)C=C1,4-amino-4'-methylazobenzene,3.04,Log unit,Nc1ccc(cc1)N=Nc1ccc(C)cc1,nr2,25,?C
CN(C)C1=CC=C(C=C1)N=NC1=CC=C(C=C1)C(C)(C)C,4-t-butyl-4'-dimethylaminoazobenzene,2.27,Log unit,N(c1ccc(N=Nc2ccc(cc2)C(C)(C)C)cc1)(C)C,nr2,25,?C
CN(C)C1=CC=C(C=C1)N=NC1=CC=CC(=C1)C(O)=O,3-carboxy-4'-dimethylaminoazobenzene,2.64,Log unit,N(c1ccc(N=Nc2cccc(c2)C(=O)O)cc1)(C)C,nr2,25,?C
CN(C)C1=CC=C(C=C1)N=NC1=CC=C(C=C1)C([O-])=O,4-carboxy-4'-dimethylaminoazobenzene,2.35,Log unit,N(c1ccc(cc1)N=Nc1ccc(C(=O)[O-])cc1)(C)C,nr2,25,?C
CN(C)C1=CC=C(C=C1)N=NC1=CC=C(Cl)C=C1,4-chloro-4'-dimethylaminoazobenzene,2,Log unit,N(c1ccc(N=Nc2ccc(Cl)cc2)cc1)(C)C,nr2,25,?C
CN(C)C1=CC=C(C=C1)N=NC1=CC=CC=C1,4-dimethylaminoazobenzene,3.226,Log unit,N(c1ccc(N=Nc2ccccc2)cc1)(C)C,nr2,25,?C
CN(C)C1=CC=C(C=C1)N=NC1=CC=C(O)C=C1,4-dimethylamino-4'-hydroxyazobenzene,3.4,Log unit,N(c1ccc(N=Nc2ccc(O)cc2)cc1)(C)C,nr2,25,?C
CN(C)C1=CC=C(C=C1)N=NC1=CC=C(O)C=C1,4-dimethylamino-4'-hydroxyazobenzene,8.6,Log unit,Oc1ccc(N=Nc2ccc(N(C)C)cc2)cc1,oh,25,?C