Smiles,Name,pKa,pKa Unit,Ionizable center smiles,IC group,Temperature,Temperature Unit
CC1=CC=C(C=C1)C(O)C(F)(F)F,"2,2,2-trifluoro-1-(p-tolyl)-ethanol",12.04,Log unit,OC(c1ccc(cc1)C)C(F)(F)F,,25,?C
OC(=O)CCC1=CC=CC=C1Br,3-(2-bromophenyl)-propanoic acid,4.58,Log unit,OC(=O)CCc1c(Br)cccc1,,25,?C
OC(=O)CCC1=CC=CC=C1F,3-(2-fluorophenyl)-propanoic acid,4.6,Log unit,OC(=O)CCc1c(F)cccc1,,25,?C
OC(=O)CCC1=CC=CC(=C1)N(=O)=O,3-(3-nitrophenyl)-propanoic acid,4.53,Log unit,OC(=O)CCc1cccc(c1)N(=O)=O,,25,?C
CC1=C(O)C(C(O)=O)=C(C)C(=C1)N(=O)=O,"2-hydroxy-3,6-dimethyl-5-nitro-benozic acid",2.78,Log unit,OC(=O)c1c(O)c(cc(N(=O)=O)c1C)C,,25,?C
CC1=CC(=CC=C1)S(=O)(=O)CC(O)=O,2-(m-tolyl)sulfonyl-acetic acid,2.567,Log unit,OC(=O)CS(=O)(=O)c1cccc(c1)C,,25,?C
COC1=CC(=CC=C1)S(=O)(=O)CC(O)=O,2-(3-methoxyphenyl)sulfonyl-acetic acid,2.588,Log unit,OC(=O)CS(=O)(=O)c1cccc(c1)OC,,25,?C
COC1=CC=C(C=C1)S(=O)(=O)CC(O)=O,2-(4-methoxyphenyl)sulfonyl-acetic acid,2.602,Log unit,OC(=O)CS(=O)(=O)c1ccc(OC)cc1,,25,?C
CC(C)C(C#N)(C(C)C)C(O)=O,2-cyano-2-isopropyl-3-methyl-butanoic acid,2.556,Log unit,OC(=O)C(C#N)(C(C)C)C(C)C,,25,?C
OC(=O)C1=CC(CC=C)=CC=C1,3-allyl-benzoic acid,4.32,Log unit,OC(=O)c1cccc(c1)CC=C,,25,?C
OC(=O)C1=CC=C(CC=C)C=C1,4-allyl-benzoic acid,4.34,Log unit,OC(=O)c1ccc(cc1)CC=C,,25,?C
CC=CC1=CC(=CC=C1)C(O)=O,3-(1-propenyl)-benzoic acid,4.25,Log unit,OC(=O)c1cccc(c1)C=CC,,25,?C
CC=CC1=CC=C(C=C1)C(O)=O,4-(1-propenyl)-benzoic acid,4.49,Log unit,OC(=O)c1ccc(cc1)C=CC,,25,?C
CC1=CC=C(O)C(C=CC(O)=O)=C1,3-(2-hydroxy-5-methylphenyl)-propenoic acid,3.74,Log unit,OC(=O)C=Cc1c(O)ccc(C)c1,,25,?C
COC1=CC(C=CC(O)=O)=CC=C1O,3-(4-hydroxy-3-methoxyphenyl)-propenoic acid,4.58,Log unit,OC(=O)C=Cc1ccc(O)c(c1)OC,,25,?C
CC1=C(C)C(C)=C(C=C1)C(O)=O,"2,3,4-trimethyl-benzoic acid",4.06,Log unit,OC(=O)c1ccc(c(c1C)C)C,,25,?C
CC1=CC(C)=C(C)C(=C1)C(O)=O,"2,3,5-trimethyl-benzoic acid",4.01,Log unit,OC(=O)c1cc(cc(c1C)C)C,,25,?C
CC1=C(C)C(C(O)=O)=C(C)C=C1,"2,3,6-trimethyl-benzoic acid",3.34,Log unit,OC(=O)c1c(ccc(c1C)C)C,,25,?C
CC1=CC(C)=C(C=C1C)C(O)=O,"2,4,5-trimethyl-benzoic acid",4.38,Log unit,OC(=O)c1c(cc(c(c1)C)C)C,,25,?C
CC1=CC(=CC(C)=C1C)C(O)=O,"3,4,5-trimethyl-benzoic acid",4.52,Log unit,OC(=O)c1cc(c(c(C)c1)C)C,,25,?C
CC(CC(O)=O)C1=CC=CC=C1,3-phenyl-butanoic acid,4.4,Log unit,OC(=O)CC(c1ccccc1)C,,25,?C
CC1=CC(C)=C(OCC(O)=O)C=C1,"2-(2,4-dimethylphenoxy)-acetic acid",3.15,Log unit,OC(=O)COc1ccc(cc1C)C,,25,?C
CC1=CC(OCC(O)=O)=CC(C)=C1,2-(3.5-dimethylphenoxy)-acetic acid,3.2,Log unit,OC(=O)COc1cc(cc(c1)C)C,,25,?C
CC1=CC(C(O)C(O)=O)=C(C)C=C1,"2-(2,5-dimethylphenyl)-2-hydroxy-acetic acid",3.57,Log unit,OC(=O)C(c1c(ccc(c1)C)C)O,,25,?C
CCOC1=CC=CC(C)=C1C(O)=O,2-ethoxy-6-methyl-benzoic acid,3.51,Log unit,OC(=O)c1c(cccc1OCC)C,,25,?C
CCOC1=CC(C(O)=O)=C(C)C=C1,5-ethoxy-2-methyl-benzoic acid,3.86,Log unit,OC(=O)c1c(ccc(c1)OCC)C,,25,?C
CCOC1=CC(C)=C(C=C1)C(O)=O,4-ethoxy-2-methyl-benzoic acid,4.54,Log unit,OC(=O)c1ccc(cc1C)OCC,,25,?C
CC(C)C1=CC=CC(C(O)=O)=C1O,2-hydroxy-3-isopropyl-benzoic acid,2.76,Log unit,OC(=O)c1cccc(c1O)C(C)C,,25,?C
COC1=CC(=CC(OC)=C1OC)C(O)=O,"3,4,5-trimethoxy-benzoic acid",4.155,Log unit,OC(=O)c1cc(OC)c(OC)c(OC)c1,,25,?C
CCOC(=O)C(CC)(C(C)C)C(O)=O,2-ethoxycarbonyl-2-isopropyl-butanoic acid,3.87,Log unit,OC(=O)C(C(=O)OCC)(CC)C(C)C,,25,?C
OC(=O)C=CC1=CC(=CC=C1O)C#N,3-(3-cyano-6-hydroxyphenyl)-propenoic acid,3.46,Log unit,OC(=O)C=Cc1c(O)ccc(C#N)c1,,25,?C
OC(=O)C1=CC(O)=CC2=CC=CC=C12,3-hydroxy-1-naphthoic acid,3.69,Log unit,OC(=O)c1c2ccccc2cc(c1)O,,25,?C
OC(=O)C1=CC2=CC=CC=C2C=C1O,3-Hydroxy-2-naphthoic acid,2.75,Log unit,OC(=O)c1cc2ccccc2cc1O,,25,?C
OC(=O)C1=CC2=CC=CC=C2C(O)=C1,4-hydroxy-2-naphthoic acid,4.25,Log unit,OC(=O)c1cc2ccccc2c(c1)O,,25,?C
OC1=CC(=CC2=CC=CC=C12)C([O-])=O,4-hydroxy-2-naphthoic acid,9.6,Log unit,Oc1c2ccccc2cc(C(=O)[O-])c1,,25,?C
CC1=C(O)C(C=CC(O)=O)=C(C)C=C1,"3-(2-hydroxy3,6-dimethylphenyl)-propenoic acid",3.84,Log unit,OC(=O)C=Cc1c(O)c(ccc1C)C,,25,?C
CC1=CC(C)=C(C=CC(O)=O)C(O)=C1,"3-(2-hydroxy-4,6-dimethylphenyl)-propenoic acid",3.93,Log unit,OC(=O)C=Cc1c(O)cc(cc1C)C,,25,?C
COC1=C(OC)C(C=CC(O)=O)=CC=C1,"3-(2,3-dimethoxyphenyl)-propenoic acid",4.37,Log unit,OC(=O)C=Cc1cccc(OC)c1OC,,25,?C
COC1=CC(OC)=C(C=CC(O)=O)C=C1,"3-(2,4-dimethoxyphenyl)-propenoic acid",4.8,Log unit,OC(=O)C=Cc1ccc(cc1OC)OC,,25,?C
COC1=C(OC)C=C(C=CC(O)=O)C=C1,"3-(3,4-dimethoxyphenyl)-propenoic acid",4.53,Log unit,OC(=O)C=Cc1ccc(OC)c(c1)OC,,25,?C
COC1=CC(C=CC(O)=O)=CC(OC)=C1,"3-(3,5-dimethoxyphenyl)-propenoic acid",4.36,Log unit,OC(=O)C=Cc1cc(cc(c1)OC)OC,,25,?C
CC1=CC(C)=C(C)C(C(O)=O)=C1C,"2,3,5,6-Tetramethyl-benzoic acid",3.416,Log unit,OC(=O)c1c(c(cc(c1C)C)C)C,,25,?C
CC(CCC(O)=O)C1=CC=CC=C1,4-phenyl-pentanoic acid,4.7,Log unit,OC(=O)CCC(c1ccccc1)C,,25,?C
OC(=O)CCCCC1=CC=CC=C1,5-phenyl-pentanoic acid,4.88,Log unit,OC(=O)CCCCc1ccccc1,,25,?C
CC(C)C1=CC=C(C=C1)C(O)C(O)=O,2-hydroxy-2-(4-isopropylphenyl)-acetic acid,3.64,Log unit,OC(=O)C(c1ccc(cc1)C(C)C)O,,25,?C
OC(=O)C1=CC=C(Cl)C2=C1C=CC=C2,4-chloro-1-naphthoic acid,3.36,Log unit,OC(=O)c1ccc(Cl)c2ccccc12,,25,?C
OC(=O)C1=CC=C(Br)C2=C1C=CC=C2,4-bromo-1-naphthoic acid,3.37,Log unit,OC(=O)c1ccc(Br)c2ccccc12,,25,?C
OC(=O)C1=CC=C(F)C2=CC=CC=C12,4-fluoro-naphthoic acid,3.7,Log unit,OC(=O)c1c2ccccc2c(F)cc1,,25,?C
OC(=O)C1=CC(=CC2=CC=CC=C12)N(=O)=O,3-nitro-1-naphthoic acid,2.83,Log unit,OC(=O)c1c2ccccc2cc(c1)N(=O)=O,,25,?C
OC(=O)C1=CC=C(C2=CC=CC=C12)N(=O)=O,4-nitro-1-naphthoic acid,2.8,Log unit,OC(=O)c1c2ccccc2c(cc1)N(=O)=O,,25,?C
CC1=CC2=CC=CC=C2C(=C1)C(O)=O,3-methyl-1-naphthoic acid,3.72,Log unit,OC(=O)c1c2ccccc2cc(c1)C,,25,?C
COC1=CC=C(C(O)=O)C2=CC=CC=C12,4-methoxy-1-naphthoic acid,4.31,Log unit,OC(=O)c1c2ccccc2c(cc1)OC,,25,?C
COC1=CC2=CC=CC=C2C=C1C(O)=O,3-Methoxy-2-naphthoic acid,3.8,Log unit,OC(=O)c1cc2ccccc2cc1OC,,25,?C
COC(=O)C(C)(CC(O)=O)C1=CC=CC=C1,3-methoxycarbonyl-3-phenyl-butanoic acid,4.46,Log unit,OC(=O)CC(c1ccccc1)(C(=O)OC)C,,25,?C
CC(CCCC(O)=O)C1=CC=CC=C1,5-phenyl-hexanoic acid,4.8,Log unit,OC(=O)CCCC(c1ccccc1)C,,25,?C
COC(=O)C(C)(CC(O)=O)C1=CC=C(C=C1)N(=O)=O,3-methoxycarbonyl-3-(4-nitrophenyl)-butanoic acid,4.27,Log unit,OC(=O)CC(c1ccc(cc1)N(=O)=O)(C(=O)OC)C,,25,?C
CCC(CC(O)=O)(C(=O)OC)C1=CC=CC=C1,3-methoxycarbonyl-3-phenyl-pentanoic acid,4.46,Log unit,OC(=O)CC(c1ccccc1)(C(=O)OC)CC,,25,?C
OC(=O)CCCCCCC1=CC=CC=C1,7-phenyl-heptanoic acid,5.07,Log unit,OC(=O)CCCCCCc1ccccc1,,25,?C
CCC(CC)(C(O)=O)C(CC)(CC)C(=O)OC,"2,2,3-triethyl-3-methoxycarbonyl-pentanoic acid",5.34,Log unit,OC(=O)C(CC)(CC)C(C(=O)OC)(CC)CC,,25,?C
CCC(CC(O)=O)(C(=O)OC)C1=CC=C(C=C1)N(=O)=O,3-methoxycarbonyl-3-(4-nitrophenyl)-pentanoic acid,4.29,Log unit,OC(=O)CC(c1ccc(N(=O)=O)cc1)(C(=O)OC)CC,,25,?C
CC1=CC=C(C=C1)C(=O)C1=CC=C(C=C1)C(O)=O,2-(p-tolyuoyl)-benzoic acid,3.64,Log unit,OC(=O)c1ccc(C(=O)c2ccc(cc2)C)cc1,,25,?C
CO,Methanol,15.295,Log unit,OC,,25,?C
COO,Methyl hydroperoxide,11.5,Log unit,OOC,,25,?C
CC(=O)OO,PEROXYACETIC ACID,8.2,Log unit,OOC(=O)C,,25,?C
CCO,Ethanol,15.915,Log unit,OCC,,25,?C
CC1=CC=CC(O)=C1C(O)=O,2-hydroxy-6-methyl-benzoic acid,3.32,Log unit,OC(=O)c1c(cccc1C)O,,25,?C
CC1=C(O)C=CC=C1C(O)=O,3-hydroxy-2-methyl-benzoic acid,3.83,Log unit,OC(=O)c1cccc(O)c1C,,25,?C
CC1=CC=C(C=C1O)C(O)=O,3-hydroxy-4-methyl-benzoic acid,4.32,Log unit,OC(=O)c1cc(O)c(cc1)C,,25,?C
CC1=CC=C(O)C=C1C(O)=O,5-hydroxy-2-methyl-benzoic acid,3.92,Log unit,OC(=O)c1cc(O)ccc1C,,25,?C
CC1=CC(O)=CC=C1C(O)=O,4-hydroxy-2-methyl-benzoic acid,4.71,Log unit,OC(=O)c1ccc(O)cc1C,,25,?C
CC1=CC(=CC=C1O)C(O)=O,4-hydroxy-3-methyl-benzoic acid,4.68,Log unit,OC(=O)c1ccc(O)c(c1)C,,25,?C
OC(=O)CC1=CC=C(O)C(O)=C1,"2-(3,4-dihydroxyphenyl)-acetic acid",4.25,Log unit,OC(=O)Cc1ccc(O)c(O)c1,,25,?C
OC(=O)COC1=CC=CC=C1O,2-(2-hydroxyphenoxy)-acetic acid,3.02,Log unit,OC(=O)COc1ccccc1O,,25,?C
COC1=CC=C(C(O)=O)C(O)=C1,2-hydroxy-4-methoxy-benzoic acid,3.31,Log unit,OC(=O)c1c(O)cc(cc1)OC,,25,?C
COC1=CC=C(O)C(=C1)C(O)=O,2-hydroxy-5-methoxy-benzoic acid,2.94,Log unit,OC(=O)c1c(O)ccc(OC)c1,,25,?C
COC1=CC=C(C=C1O)C(O)=O,3-Hydroxy-4-methoxy-benzoic acid,4.47,Log unit,OC(=O)c1cc(O)c(cc1)OC,,25,?C
COC1=CC=C(C=C1O)C([O-])=O,3-Hydroxy-4-methoxy-benzoic acid,10,Log unit,Oc1cc(ccc1OC)C(=O)[O-],,25,?C
COC1=CC(=CC=C1O)C(O)=O,4-hydroxy-3-methoxy-benzoic acid,4.49,Log unit,OC(=O)c1ccc(O)c(c1)OC,,25,?C
COC1=CC(=CC=C1O)C([O-])=O,4-hydroxy-3-methoxy-benzoic acid,9.4,Log unit,Oc1ccc(C(=O)[O-])cc1OC,,25,?C
OC(=O)C1=C(F)C(F)=C(C(F)=C1F)C(F)(F)F,"2,3,5,6-tetrafluoro-4-trifluoromethyl-benzoic acid",1.44,Log unit,OC(=O)c1c(F)c(F)c(c(F)c1F)C(F)(F)F,,25,?C
OC(=O)C1=C(C([O-])=O)C(Cl)=C(Cl)C(Cl)=C1Cl,"Tetrachloro-1,2-benzenedicarboxylic acid",2.64,Log unit,OC(=O)c1c(C(=O)[O-])c(c(c(c1Cl)Cl)Cl)Cl,,25,?C
CC1=C(F)C(F)=C(C(O)=O)C(F)=C1F,"2,3,5,6-TETRAFLUORO-4-METHYL-BENZOIC ACID",2,Log unit,OC(=O)c1c(c(F)c(c(F)c1F)C)F,,25,?C
OC(=O)C1=CC(=CC=C1O)C#N,3-cyano-6-hydroxy-benzoic acid,2.38,Log unit,OC(=O)c1c(O)ccc(C#N)c1,,25,?C
OC(=O)C1=CC=C(C=C1O)C#N,4-cyano-2-hydroxy-benzoic acid,2.35,Log unit,OC(=O)c1c(O)cc(cc1)C#N,,25,?C
OC(=O)COC1=C(Cl)C=C(Cl)C(Cl)=C1,"2,4,5-trichloro-phenoxyacetic acid",2.8415,Log unit,OC(=O)COc1c(cc(Cl)c(Cl)c1)Cl,,25,?C
OC(=O)C1=C(C(O)=O)C(Cl)=CC=C1,"3-chloro-1,2-benzenedicarboxylic acid",2,Log unit,OC(=O)c1c(c(Cl)ccc1)C(=O)O,,25,?C
OC(=O)C1=C(C([O-])=O)C(Cl)=CC=C1,"3-chloro-1,2-benzenedicarboxylic acid",4.49,Log unit,OC(=O)c1c(c(Cl)ccc1)C(=O)[O-],,25,?C
OC(=O)C1=C(C(O)=O)C(Br)=CC=C1,"3-bromo-1,2-benzenedicarboxylic acid",2.27,Log unit,OC(=O)c1c(c(Br)ccc1)C(=O)O,,25,?C
OC(=O)C1=C(C([O-])=O)C(Br)=CC=C1,"3-bromo-1,2-benzenedicarboxylic acid",4.35,Log unit,OC(=O)c1c(c(Br)ccc1)C(=O)[O-],,25,?C
OC(=O)C1=CC=C(Br)C=C1C(O)=O,"4-bromo-1,2-benzenedicarboxylic acid",2.8,Log unit,OC(=O)c1ccc(Br)cc1C(=O)O,,25,?C
OC(=O)C1=CC=C(Br)C=C1C([O-])=O,"4-bromo-1,2-benzenedicarboxylic acid",4.6,Log unit,OC(=O)c1ccc(Br)cc1C(=O)[O-],,25,?C
OC(=O)COC1=C(Cl)C=C(Cl)C=C1,"2,4-dichloro-phenoxyacetic acid",2.878,Log unit,OC(=O)COc1c(cc(Cl)cc1)Cl,,25,?C
OC(=O)COC1=CC(Cl)=CC=C1Cl,"2,5-dichloro-phenoxyacetic acid'.",2.94,Log unit,OC(=O)COc1cc(Cl)ccc1Cl,,25,?C
OC(=O)COC1=C(Cl)C=CC=C1Cl,"2,6-dichloro-phenoxyacetic acid",3.3,Log unit,OC(=O)COc1c(Cl)cccc1Cl,,25,?C
OC(=O)COC1=CC=C(Cl)C(Cl)=C1,"3,4-dichloro-phenoxyacetic acid",2.92,Log unit,OC(=O)COc1ccc(Cl)c(Cl)c1,,25,?C
CC1=C(Cl)C(=CC=C1)C(O)=O,2-chloro-3-methyl-benzoic acid,3,Log unit,OC(=O)c1c(Cl)c(ccc1)C,,25,?C
CC1=CC=C(C(O)=O)C(Cl)=C1,2-chloro-4-methyl-benzoic acid,3.27,Log unit,OC(=O)c1c(Cl)cc(cc1)C,,25,?C
CC1=CC=C(Cl)C(=C1)C(O)=O,2-chloro-5-methyl-benzoic acid,3.12,Log unit,OC(=O)c1c(Cl)ccc(C)c1,,25,?C
CC1=C(C(O)=O)C(Cl)=CC=C1,2-CHLORO-6-METHYL-BENZOIC ACID,2.75,Log unit,OC(=O)c1c(Cl)cccc1C,,25,?C
CC1=C(C=CC=C1Cl)C(O)=O,3-chloro-2-methyl-benzoic acid,3.43,Log unit,OC(=O)c1c(c(Cl)ccc1)C,,25,?C
CC1=CC=C(C=C1Cl)C(O)=O,3-chloro-4-methyl-benzoic acid,4.06,Log unit,OC(=O)c1cc(Cl)c(cc1)C,,25,?C
CC1=CC=C(Cl)C=C1C(O)=O,5-chloro-2-methyl-benzoic acid,3.63,Log unit,OC(=O)c1cc(Cl)ccc1C,,25,?C
CC1=CC(Cl)=CC=C1C(O)=O,4-chloro-2-methyl-benzoic acid,3.75,Log unit,OC(=O)c1ccc(Cl)cc1C,,25,?C
CC1=CC(=CC=C1Cl)C(O)=O,4-chloro-3-methyl-benzoic acid,4.07,Log unit,OC(=O)c1ccc(Cl)c(c1)C,,25,?C
CC1=C(Br)C(=CC=C1)C(O)=O,2-bromo-3-methyl-benzoic Acid,2.9,Log unit,OC(=O)c1c(Br)c(ccc1)C,,25,?C
CC1=CC=C(C(O)=O)C(Br)=C1,2-bromo-4-methyl-benozic acid,3.09,Log unit,OC(=O)c1c(Br)cc(cc1)C,,25,?C
CC1=CC=C(Br)C(=C1)C(O)=O,2-bromo-5-methyl-benzoic acid,3,Log unit,OC(=O)c1c(Br)ccc(C)c1,,25,?C
CC1=C(C(O)=O)C(Br)=CC=C1,2-bromo-6-methyl-benzoic acid,2.71,Log unit,OC(=O)c1c(Br)cccc1C,,25,?C
CC1=C(C=CC=C1Br)C(O)=O,3-bromo-2-methyl-benzoic acid,3.36,Log unit,OC(=O)c1c(c(Br)ccc1)C,,25,?C
CC1=CC=C(C=C1Br)C(O)=O,3-bromo-4-methyl-benzoic acid,3.96,Log unit,OC(=O)c1cc(Br)c(cc1)C,,25,?C
CC1=CC=C(Br)C=C1C(O)=O,3-bromo-6-methyl-benzoic acid,3.58,Log unit,OC(=O)c1cc(Br)ccc1C,,25,?C
CC1=CC(Br)=CC=C1C(O)=O,4-BROMO-2-METHYL-BENZOIC ACID,3.77,Log unit,OC(=O)c1ccc(Br)cc1C,,25,?C
CC1=CC(=CC=C1Br)C(O)=O,4-bromo-3-methyl-benzoic acid,4.03,Log unit,OC(=O)c1ccc(Br)c(c1)C,,25,?C
CC1=C(I)C(=CC=C1)C(O)=O,2-iodo-3-methyl-benzoic acid,2.92,Log unit,OC(=O)c1c(I)c(ccc1)C,,25,?C
CC1=CC=C(C(O)=O)C(I)=C1,2-iodo-4-methyl-benzoic acid,3.2,Log unit,OC(=O)c1c(I)cc(cc1)C,,25,?C
CC1=CC=C(I)C(=C1)C(O)=O,2-iodo-5-methyl-benzoic acid,2.95,Log unit,OC(=O)c1c(I)ccc(C)c1,,25,?C
CC1=C(C(O)=O)C(I)=CC=C1,2-iodo-6-methyl-benzoic acid,2.7,Log unit,OC(=O)c1c(I)cccc1C,,25,?C
CC1=C(C=CC=C1I)C(O)=O,3-iodo-2-methyl-benzoic acid,3.26,Log unit,OC(=O)c1c(c(I)ccc1)C,,25,?C
CC1=CC=C(I)C=C1C(O)=O,5-iodo-2-methyl-benzoic acid,3.62,Log unit,OC(=O)c1cc(I)ccc1C,,25,?C
CC1=CC(I)=CC=C1C(O)=O,4-iodo-2-methyl-benzoic acid,3.79,Log unit,OC(=O)c1ccc(I)cc1C,,25,?C
OC(=O)CC1=CC(F)=CC=C1,2-(3-fluorophenyl)-acetic acid,4.13,Log unit,OC(=O)Cc1cc(F)ccc1,,25,?C
OC(C(O)=O)C1=CC=CC=C1Cl,2-(2-chlorophenyl)-2-hydroxy-acetic acid,3.31,Log unit,OC(=O)C(c1c(Cl)cccc1)O,,25,?C
OC(C(O)=O)C1=CC=C(Cl)C=C1,2-(4-chlorophenyl)-2-hydroxy-acetic acid,3.15,Log unit,OC(=O)C(c1ccc(Cl)cc1)O,,25,?C
OC(C(O)=O)C1=CC=CC=C1Br,2-(2-bromophenyl)-2-hydroxy-acetic acid,3.32,Log unit,OC(=O)C(c1c(Br)cccc1)O,,25,?C
OC(C(O)=O)C1=CC=C(Br)C=C1,2-(4-bromophenyl)-2-hydroxy-acetic acid,3.105,Log unit,OC(=O)C(c1ccc(Br)cc1)O,,25,?C
OC(C(O)=O)C1=CC=C(I)C=C1,2-hydroxy-2-(4-iodophenyl)-acetic acid,3.14,Log unit,OC(=O)C(c1ccc(I)cc1)O,,25,?C
OC(C(O)=O)C1=CC=CC=C1F,2-(2-fluorophenyl)-2-hydroxy-acetic acid,3.3,Log unit,OC(=O)C(c1c(F)cccc1)O,,25,?C
OC(C(O)=O)C1=CC=C(F)C=C1,2-(4-fluorophenyl)-2-hydroxy-acetic acid,3.19,Log unit,OC(=O)C(c1ccc(F)cc1)O,,25,?C
CCCCC1=CC=C(C=C1)C(O)C(O)=O,2-(4-butyrylphenyl)-2-hydroxy-acetic acid,3.58,Log unit,OC(=O)C(c1ccc(cc1)CCCC)O,,25,?C
CC1=C(C=CC=C1C(O)=O)N(=O)=O,2-methyl-3-nitro-benzoic acid,2.98,Log unit,OC(=O)c1cccc(c1C)N(=O)=O,,25,?C
CC1=C(C=C(C=C1)N(=O)=O)C(O)=O,2-Methyl-5-nitro-benzoic acid,3.23,Log unit,OC(=O)c1c(ccc(c1)N(=O)=O)C,,25,?C
CC1=C(C(O)=O)C(=CC=C1)N(=O)=O,2-methyl-6-nitro-benzoic acid,2.4,Log unit,OC(=O)c1c(cccc1N(=O)=O)C,,25,?C
CC1=C(C(=CC=C1)C(O)=O)N(=O)=O,3-methyl-2-nitro-benzoic acid,2.91,Log unit,OC(=O)c1cccc(C)c1N(=O)=O,,25,?C
CC1=C(C=CC(=C1)C(O)=O)N(=O)=O,3-METHYL-4-NITRO-BENZOIC ACID,3.65,Log unit,OC(=O)c1ccc(c(c1)C)N(=O)=O,,25,?C
CC1=CC(C(O)=O)=C(C=C1)N(=O)=O,5-methyl-2-nitro-benzoic acid,2.55,Log unit,OC(=O)c1c(ccc(c1)C)N(=O)=O,,25,?C
CC1=CC(=C(C=C1)C(O)=O)N(=O)=O,4-methyl-2-nitro-benzoic acid,2.68,Log unit,OC(=O)c1ccc(cc1N(=O)=O)C,,25,?C
CC1=C(C=C(C=C1)C(O)=O)N(=O)=O,4-METHYL-3-NITRO-BENZOIC ACID,3.62,Log unit,OC(=O)c1ccc(C)c(c1)N(=O)=O,,25,?C
COC1=C(C=CC(=C1)N(=O)=O)C(O)=O,2-methoxy-4-nitro-benzoic acid,3.11,Log unit,OC(=O)c1ccc(cc1OC)N(=O)=O,,25,?C
COC1=C(O)C(=CC(=C1)N(=O)=O)C(O)=O,2-hydroxy-4-methoxy-5-nitro-benzoic acid,2.58,Log unit,OC(=O)c1c(O)c(cc(N(=O)=O)c1)OC,,25,?C
COC1=C(O)C(=CC(=C1)C(O)=O)N(=O)=O,4-hydroxy-3-methoxy-5-nitro-benzoic acid,4.12,Log unit,OC(=O)c1cc(c(O)c(c1)N(=O)=O)OC,,25,?C
CCC1=C(C(O)=C(C=C1N(=O)=O)N(=O)=O)N(=O)=O,"3-ethyl-2,4,6-trinitro-phenol",1,Log unit,Oc1c(cc(N(=O)=O)c(c1N(=O)=O)CC)N(=O)=O,,25,?C
OC(=O)CS(=O)(=O)C1=CC=CC(Br)=C1,2-(3-bromophenyl)sulfonyl-acetic acid,2.523,Log unit,OC(=O)CS(=O)(=O)c1cc(Br)ccc1,,25,?C
OC(=O)CS(=O)(=O)C1=CC=C(Br)C=C1,2-(4-bromophenyl)sulfonyl-acetic acid,2.519,Log unit,OC(=O)CS(=O)(=O)c1ccc(Br)cc1,,25,?C
OC(=O)CS(=O)(=O)C1=CC=CC(F)=C1,2-(3-fluorophenyl)sufonyl-acetic acid,2.432,Log unit,OC(=O)CS(=O)(=O)c1cc(F)ccc1,,25,?C
OC(=O)CS(=O)(=O)C1=CC=C(F)C=C1,2-(4-fluorophenyl)sulfonyl-acetic acid,2.479,Log unit,OC(=O)CS(=O)(=O)c1ccc(F)cc1,,25,?C
OC(=O)CS(=O)(=O)C1=CC=CC(=C1)N(=O)=O,2-(3-nitrophenyl)sulfonyl-acetic acid,2.362,Log unit,OC(=O)CS(=O)(=O)c1cccc(c1)N(=O)=O,,25,?C
OC(=O)CS(=O)(=O)C1=CC=C(C=C1)N(=O)=O,2-(4-nitrophenyl)sulfonyl-acetic acid,2.33,Log unit,OC(=O)CS(=O)(=O)c1ccc(N(=O)=O)cc1,,25,?C
OC(=O)C1=CC(C(O)=O)=C(C=C1O)C(O)=O,"5-hydroxy-1,2,4-benzenetricarboxylic acid",1.86,Log unit,OC(=O)c1c(cc(O)c(c1)C(=O)O)C(=O)O,,25,?C
OC(=O)C1=C(C=C(C([O-])=O)C(O)=C1)C(O)=O,"5-hydroxy-1,2,4-benzenetricarboxylic acid",3.4,Log unit,OC(=O)c1c(cc(O)c(c1)C(=O)[O-])C(=O)O,,25,?C
OC(=O)C1=C(C=C(O)C(=C1)C([O-])=O)C([O-])=O,"5-hydroxy-1,2,4-benzenetricarboxylic acid",5.3,Log unit,OC(=O)c1c(cc(O)c(c1)C(=O)[O-])C(=O)[O-],,25,?C
OC(=O)C1=CC(C(O)=O)=C(O)C(=C1)C(O)=O,"2-hydroxy-1,3,5-benzenetricarboxylic acid",3.07,Log unit,OC(=O)c1cc(c(O)c(c1)C(=O)O)C(=O)O,,25,?C
OC(=O)C1=CC(C(O)=O)=C(O)C(=C1)C([O-])=O,"2-hydroxy-1,3,5-benzenetricarboxylic acid",3.93,Log unit,OC(=O)c1cc(c(O)c(c1)C(=O)[O-])C(=O)O,,25,?C
OC(=O)C1=CC(C([O-])=O)=C(O)C(=C1)C([O-])=O,"2-hydroxy-1,3,5-benzenetricarboxylic acid",4.88,Log unit,OC(=O)c1cc(c(O)c(c1)C(=O)[O-])C(=O)[O-],,25,?C
COC1=CC(OC)=C(C(O)=O)C(OC)=C1,"2,4,6-trimethoxy-benzoic acid",3.59,Log unit,OC(=O)c1c(cc(cc1OC)OC)OC,,25,?C
CC(=O)C1=CC=CC=C1C(O)=O,2-acetyl-benzoic acid,4.123,Log unit,OC(=O)c1ccccc1C(=O)C,,25,?C
CC(=O)C1=CC=CC(=C1)C(O)=O,3-acetyl-benzoic acid,3.827,Log unit,OC(=O)c1cccc(c1)C(=O)C,,25,?C
CC(=O)C1=CC=C(C=C1)C(O)=O,4-acetyl-benzoic acid,3.7,Log unit,OC(=O)c1ccc(cc1)C(=O)C,,25,?C
OC(=O)C=CC1=CC=C(O)C=C1,3-(4-hydroxyphenyl)propenoic acid,4.64,Log unit,OC(=O)C=Cc1ccc(O)cc1,,25,?C
CC1=CC(C(O)=O)=C(C=C1)C(O)=O,"4-Methyl-1,2-benzenedicarboxylic acid",3.04,Log unit,OC(=O)c1c(ccc(c1)C)C(=O)O,,25,?C
OC(=O)C=CC1=CC=C(O)C=C1O,"3-(2,4-dihydroxyphenyl)-propenoic acid",4.1,Log unit,OC(=O)C=Cc1ccc(O)cc1O,,25,?C
OC(=O)C=CC1=CC(O)=CC=C1O,"3-(2,5-dihydroxyphenyl)-propenoic acid",3.69,Log unit,OC(=O)C=Cc1cc(O)ccc1O,,25,?C
OC(=O)C=CC1=CC=C(O)C(O)=C1,"3-(3,4-dihydroxyphenyl)-propenoic acid",4.555,Log unit,OC(=O)C=Cc1ccc(O)c(O)c1,,25,?C
COC1=CC(C(O)=O)=C(C=C1)C(O)=O,"4-methoxy-1,2-benzenedicarboxylic acid",3,Log unit,OC(=O)c1c(ccc(c1)OC)C(=O)O,,25,?C
COC1=CC(C(O)=O)=C(C=C1)C([O-])=O,"4-methoxy-1,2-benzenedicarboxylic acid",4.9,Log unit,OC(=O)c1c(ccc(c1)OC)C(=O)[O-],,25,?C
CC1=C(O)C(C(O)=O)=C(C)C=C1,"2-hydroxy-3,6-dimethyl-benzoic acid",3.23,Log unit,OC(=O)c1c(ccc(c1O)C)C,,25,?C
CC(O)(C(O)=O)C1=CC=CC=C1,alpha-phenyl-alpha-hydroxy-propionic acid,3.53,Log unit,OC(=O)C(c1ccccc1)(O)C,,25,?C
OC(CC(O)=O)C1=CC=CC=C1,Beta-phenyl-Beta-hydroxy-propionic acid,4.39,Log unit,OC(=O)CC(c1ccccc1)O,,25,?C
OC(=O)C(O)(C1=CC=CC=C1)C1=CC=CC=C1,benzilic acid,3.05,Log unit,OC(=O)C(c1ccccc1)(O)c1ccccc1,,25,?C
OC(=O)C=CC1=C(O)C=CC=C1,o-hydroxy-cinnamic acid,4.6,Log unit,OC(=O)C=Cc1c(O)cccc1,,25,?C
OC(=O)C=CC1=CC(O)=CC=C1,m-hydroxy-cinnamic acid,4.395,Log unit,OC(=O)C=Cc1cc(O)ccc1,,25,?C
OC(=O)CC1=CC=CC=C1N(=O)=O,o-Nitrophenylacetic acid,4,Log unit,OC(=O)Cc1ccccc1N(=O)=O,,25,?C
OC(=O)CC1=CC=CC(=C1)N(=O)=O,m-nitrophenyl-acetic acid,3.96,Log unit,OC(=O)Cc1cccc(c1)N(=O)=O,,25,?C
OC(=O)CC1=CC=C(C=C1)N(=O)=O,p-nitrophenyl-acetic acid,3.924,Log unit,OC(=O)Cc1ccc(cc1)N(=O)=O,,25,?C
OC(=O)CC1=C(C=C(C=C1)N(=O)=O)N(=O)=O,"2,4-dinitrophenyl-acetic acid",3.5,Log unit,OC(=O)Cc1ccc(cc1N(=O)=O)N(=O)=O,,25,?C
OC(=O)CCC1=CC=CC=C1N(=O)=O,b-(o-nitrophenyl)-propionic acid,4.5,Log unit,OC(=O)CCc1ccccc1N(=O)=O,,25,?C
OC(=O)CCC1=CC=C(C=C1)N(=O)=O,b-(p-nitrophenyl)-propionic acid,4.505,Log unit,OC(=O)CCc1ccc(cc1)N(=O)=O,,25,?C
OC(=O)C=CC1=CC=CC=C1N(=O)=O,o-nitro-cinnamic acid,4.15,Log unit,OC(=O)C=Cc1ccccc1N(=O)=O,,25,?C
OC(=O)C=CC1=CC=CC(=C1)N(=O)=O,m-nitro-cinnamic acid,4.12,Log unit,OC(=O)C=Cc1cccc(c1)N(=O)=O,,25,?C
OC(=O)C=CC1=CC=C(C=C1)N(=O)=O,p-nitro-cinnamic acid,4.05,Log unit,OC(=O)C=Cc1ccc(cc1)N(=O)=O,,25,?C
[NH3+]C(CC1=CC=CC=C1)C(O)=O,Phenylalanine,2.16,Log unit,OC(=O)C(Cc1ccccc1)[NH3+],,25,?C
NC(CC1=CC=CC=C1)C([O-])=O,Phenylalanine,9.1,Log unit,NC(Cc1ccccc1)C(=O)[O-],,25,?C
COC1=CC=C(CC(O)=O)C=C1,p-methoxyphenyl-acetic acid,4.355,Log unit,OC(=O)Cc1ccc(cc1)OC,,25,?C
COC1=C(OC)C=C(CC(O)=O)C=C1,"3,4-dimethoxyphenyl-acetic acid",4.33,Log unit,OC(=O)Cc1ccc(OC)c(c1)OC,,25,?C
COC1=CC=CC=C1CCC(O)=O,b-(o-methoxyphenyl)-propionic acid,4.8,Log unit,OC(=O)CCc1ccccc1OC,,25,?C
COC1=CC(CCC(O)=O)=CC=C1,b-(m-methoxyphenyl)-propionic acid,4.65,Log unit,OC(=O)CCc1cccc(c1)OC,,25,?C
COC1=CC=C(CCC(O)=O)C=C1,b-(p-methoxyphenyl)-propionic acid,4.7,Log unit,OC(=O)CCc1ccc(cc1)OC,,25,?C
COC1=CC=CC=C1C=CC(O)=O,o-methoxy-cinnamic acid,4.46,Log unit,OC(=O)C=Cc1ccccc1OC,,25,?C
COC1=CC(C=CC(O)=O)=CC=C1,m-methoxy-cinnamic acid,4.37,Log unit,OC(=O)C=Cc1cccc(c1)OC,,25,?C