Smiles,Name,pKa,pKa Unit,Ionizable center smiles,IC group,Temperature,Temperature Unit
ClC1=CC(Cl)=C(C=C1)[C@H](CN1C=CN=C1)OCC=C,IMAZALIL BASE,6.53,Log unit,n1cn(CC(c2c(Cl)cc(cc2)Cl)OCC=C)cc1,(benz-) imidazole,,-
N1C=NC2=C1C=CC=C2,Benzimidazole,5.53,Log unit,n1c[nH]c2c1cccc2,(benz-) imidazole,25,?C
COC1=CC=C(CC2=NC3=C(N2)C=CC(=C3)[N+]([O-])=O)C=C1,2-(4-Methoxyphenylmethyl)-5-nitrobenzimidazole,4.26,Log unit,n1c2cc([N+](=O)[O-])ccc2[nH]c1Cc1ccc(cc1)OC,(benz-) imidazole,,-
ClC1=CC=C(CC2=NC3=C(N2)C=CC(Cl)=C3)C=C1,2-(4-Chlorphenylmethyl)-5-chlorobenzimidazole,4.86,Log unit,n1c2cc(Cl)ccc2[nH]c1Cc1ccc(cc1)Cl,(benz-) imidazole,,-
CC1=C(C=CC=C1)C1=NC2=C(N1)C=CC(=C2)[N+]([O-])=O,2-(2-Methylphenyl)-5-nitrobenzimidazole,4.87,Log unit,n1c2cc([N+](=O)[O-])ccc2[nH]c1c1c(cccc1)C,(benz-) imidazole,,-
CC1=CC(C)=C(C=C1)C1=NC2=C(N1)C=CC(=C2)[N+]([O-])=O,"2-(2,4-Dimethylphenyl)-5-nitrobenzimidazole",5.29,Log unit,n1c2cc([N+](=O)[O-])ccc2[nH]c1c1c(cc(cc1)C)C,(benz-) imidazole,,-
ClC1=CC2=C(NC(CC3=CC=C(Br)C=C3)=N2)C=C1,2-(4-Bromophenylmethyl)-5-chlorobenzimidazole,5.42,Log unit,n1c(Cc2ccc(Br)cc2)[nH]c2c1cc(cc2)Cl,(benz-) imidazole,,-
CC1=CC=C(C=C1)C1=NC2=C(N1)C=CC=C2,2-(4-Methylphenyl)-benzimidazole,6.9,Log unit,n1c([nH]c2c1cccc2)c1ccc(cc1)C,(benz-) imidazole,,-
CC1=CC=C(CC2=NC3=C(N2)C=CC(Cl)=C3)C=C1,2-(4-Methylphenylmethyl)-5-chlorobenzimidazole,7.09,Log unit,n1c2cc(Cl)ccc2[nH]c1Cc1ccc(cc1)C,(benz-) imidazole,,-
COC1=C(C=CC=C1)C1=NC2=C(N1)C=CC=C2,2-(2-Methoxyphenyl)-benzimidazole,7.17,Log unit,n1c([nH]c2c1cccc2)c1c(cccc1)OC,(benz-) imidazole,,-
NC1=CC=C(CC2=NC3=C(N2)C=CC(Cl)=C3)C=C1,2-(4-Aminophenylmethyl)-5-chlorobenzimidazole,7.47,Log unit,n1c2cc(Cl)ccc2[nH]c1Cc1ccc(cc1)N,(benz-) imidazole,,-
BrC1=NC=CC=N1,"PYRIMIDINE, 2-BROMO-",-1.63,Log unit,n1c(Br)nccc1,pyrimidine,20,?C
COC(=O)C1=NC=CC=N1,"2-PYRIMIDINECARBOXYLIC ACID, METHYL ESTER",-0.68,Log unit,n1c(nccc1)C(=O)OC,pyrimidine,,-
CSC1=NC=CC=N1,"PYRIMIDINE, 2-(METHYLTHIO)-",0.59,Log unit,n1c(SC)nccc1,pyrimidine,20,?C
[O-][N+](=O)C1=CN=CN=C1,"PYRIMIDINE, 5-NITRO-",0.72,Log unit,n1cncc([N+](=O)[O-])c1,pyrimidine,20,?C
C1=CN=CN=C1,pyrimidine,1.23,Log unit,n1cnccc1,pyrimidine,20,?C
CCOC1=NC=CC=N1,"PYRIMIDINE, 2-ETHOXY-",1.27,Log unit,n1c(nccc1)OCC,pyrimidine,20,?C
CC1=NC=NC=C1,4-METHYLPYRIMIDINE,1.91,Log unit,n1ccc(nc1)C,pyrimidine,20,?C
CSC1=NC(C)=CC(C)=N1,"2-MES-4,6-DIMETHYLPYRIMIDINE",2.12,Log unit,n1c(SC)nc(cc1C)C,pyrimidine,20,?C
CC1=CC(C)=NC=N1,"4,6-Dimethylpyrimidine",2.7,Log unit,n1cnc(cc1C)C,pyrimidine,,-
NC1=NC=CC=N1,2-Aminopyrimidine,3.45,Log unit,n1c(N)nccc1,pyrimidine,20,?C
CC1=CC(C)=NC(NC2=CC=CC=C2)=N1,Pyrimethanil,3.52,Log unit,n1c(Nc2ccccc2)nc(cc1C)C,pyrimidine,20,?C
ClC1=CC(Cl)=NC(=N1)C1=CC=CC=C1,FENCLORIM,4.23,Log unit,n1c(nc(Cl)cc1Cl)c1ccccc1,pyrimidine,,-
CC1=CC(C)=NC(N)=N1,"2-AMINO-4,6-DIMETHYLPYRIMIDINE",4.82,Log unit,n1c(N)nc(cc1C)C,pyrimidine,20,?C
NC1=CC(N)=NC(N)=N1,"2,4,6-PYRIMIDINETRIAMINE",6.81,Log unit,n1c(N)nc(cc1N)N,pyrimidine,20,?C
CCC1=CC=C(C)N=C1,5-ethyl-2-methylpyridine,6.51,Log unit,n1c(ccc(c1)CC)C,pyridine (ortho),20,?C
CC1=CC(C)=C(C)N=C1C,"2,3,5,6-TETRAMETHYLPYRIDINE",7.9,Log unit,n1c(c(cc(c1C)C)C)C,pyridine (ortho),20,?C
FC1=CC=CC=N1,2-FLUOROPYRIDINE,-0.44,Log unit,n1c(F)cccc1,pyridine (ortho),25,?C
ClC1=CC=CC=N1,2-chloropyridine,0.49,Log unit,n1c(Cl)cccc1,pyridine (ortho),25,?C
BrC1=CC=CC=N1,2-Bromopyridine,0.9,Log unit,n1c(Br)cccc1,pyridine (ortho),25,?C
C=CC1=CC=CC=N1,2-VINYLPYRIDINE,4.98,Log unit,n1c(cccc1)C=C,pyridine (ortho),25,?C
C(C1=CC=CC=C1)C1=CC=CC=N1,2-Benzylpyridine,5.13,Log unit,n1c(cccc1)Cc1ccccc1,pyridine (ortho),25,?C
OCCC1=CC=CC=N1,2-PYRIDINEETHANOL,5.31,Log unit,n1c(cccc1)CCO,pyridine (ortho),25,?C
OCCCC1=CC=CC=N1,2-Pyridinepropanol,5.61,Log unit,n1c(cccc1)CCCO,pyridine (ortho),25,?C
CC1=CC=C(C=C)C=N1,2-METHYL-5-VINYLPYRIDINE,5.67,Log unit,n1c(ccc(c1)C=C)C,pyridine (ortho),25,?C
CC(C)(C)C1=CC=CC=N1,2-T-BUTYLPYRIDINE,5.76,Log unit,n1c(cccc1)C(C)(C)C,pyridine (ortho),25,?C
CCC1=CC=CC=N1,2-ETHYLPYRIDINE,5.89,Log unit,n1c(cccc1)CC,pyridine (ortho),25,?C
CC1=CC=C(C)N=C1,"2,5-dimethylpyridine",6.4,Log unit,n1c(ccc(c1)C)C,pyridine (ortho),25,?C
CC1=C(C)N=CC=C1,"2,3-dimethylpyridine",6.57,Log unit,n1c(c(ccc1)C)C,pyridine (ortho),25,?C
CC1=CC=CC(C)=N1,"2,6-LUTIDINE",6.6,Log unit,n1c(cccc1C)C,pyridine (ortho),25,?C
CC1=CC=NC(C)=C1,"2,4-dimethylpyridine",6.99,Log unit,n1c(cc(cc1)C)C,pyridine (ortho),25,?C
CC1=CC(C)=NC(C)=C1,"2,4,6-COLLIDINE",7.43,Log unit,n1c(cc(cc1C)C)C,pyridine (ortho),25,?C
ClC1=CC=CC(Cl)=N1,"2,6-Dichloropyridine",-2.86,Log unit,n1c(Cl)cccc1Cl,pyridine (ortho),,-
ClC1=NC(Cl)=C(Cl)C(Cl)=C1Cl,"2,3,4,5,6-pentachlorpyridine",-1,Log unit,n1c(Cl)c(c(c(c1Cl)Cl)Cl)Cl,pyridine (ortho),,-
ClC1=C(Cl)N=CC=C1,"2,3-Dichloropyridine",-0.85,Log unit,n1c(Cl)c(ccc1)Cl,pyridine (ortho),,-
ClC1=CC(Cl)=C(Cl)N=C1Cl,"2,3,5,6-TETRACHLORPYRIDINE",-0.8,Log unit,n1c(Cl)c(cc(c1Cl)Cl)Cl,pyridine (ortho),,-
C1=CC=C(C=C1)C1=CC=CC=N1,2-Phenylpyridine,4.48,Log unit,n1c(cccc1)c1ccccc1,pyridine (ortho),,-
CC1=CC=CC=N1,2-METHYLPYRIDINE,6,Log unit,n1c(cccc1)C,pyridine (ortho),,-
C1=CC=C(N=C1)C1=CC=CC=N1,"2,2-Bipyridine",4.33,Log unit,n1c(cccc1)c1ncccc1,pyridine (ortho),25,?C
OCC1=CC=CC=N1,2-Pyridinemethanol,4.86,Log unit,n1c(cccc1)CO,pyridine (ortho),25,?C
CC1=CC=C(N)N=C1,2-AMINO-5-METHYLPYRIDINE,7.22,Log unit,n1c(N)ccc(c1)C,pyridine (ortho),,-
CSC1=CC=CC=N1,2-METHYLTHIOPYRIDINE,3.59,Log unit,n1c(SC)cccc1,pyridine (ortho),20,?C
OC1=CC=CC=N1,2-hydroxypyridine,0.75,Log unit,n1c(cccc1)O,pyridine (ortho),20,?C
COC1=CC=CC=N1,2-METHOXYPYRIDINE,3.06,Log unit,n1c(cccc1)OC,pyridine (ortho),25,?C
COC1=CC=CC(OC)=N1,"PYRIDINE, 2,6-DIMETHOXY-",1.6,Log unit,n1c(cccc1OC)OC,pyridine (ortho),,-
CC(=O)C1=CC=CC=N1,2-acetylpyridine,2.73,Log unit,n1c(cccc1)C(=O)C,pyridine (ortho),17,?C
O=CC1=CC=CC=N1,2-PYRIDINECARBOXYALDEHYDE,3.8,Log unit,n1c(cccc1)C=O,pyridine (ortho),20,?C
COC(=O)C1=CC=CC=N1,"PICOLINIC ACID, METHYL ESTER",2.21,Log unit,n1c(cccc1)C(=O)OC,pyridine (ortho),22,?C
OC(=O)C1=CC=CC=N1,Picolinic Acid,1.06,Log unit,n1c(cccc1)C(=O)O,pyridine (ortho),25,?C
CC(=O)C1=CC=NC=C1,4-acetylpyridine,3.59,Log unit,n1ccc(cc1)C(=O)C,pyridine (meta/para),17,?C
BrC1=CN=CC=C1,3-Bromopyridine,2.91,Log unit,n1cc(Br)ccc1,pyridine (meta/para),20,?C
CCOC(=O)C1=CN=CC=C1,"Nicotinic acid, ethyl ester",3.35,Log unit,n1cc(ccc1)C(=O)OCC,pyridine (meta/para),20,?C
CCOC(=O)C1=CC=NC=C1,"Isonicotinic acid, ethyl ester",3.45,Log unit,n1ccc(cc1)C(=O)OCC,pyridine (meta/para),20,?C
BrC1=CC=NC=C1,4-Bromopyridine,3.78,Log unit,n1ccc(Br)cc1,pyridine (meta/para),20,?C
O=CC1=CN=CC=C1,3-FORMYLPYRIDINE,3.8,Log unit,n1cc(ccc1)C=O,pyridine (meta/para),20,?C
ClC1=CC=NC=C1,4-CHLOROPYRIDINE,3.84,Log unit,n1ccc(Cl)cc1,pyridine (meta/para),20,?C
O=CC1=CC=NC=C1,4-FORMYLPYRIDINE,4.77,Log unit,n1ccc(cc1)C=O,pyridine (meta/para),20,?C
C1=CC(=CC=N1)C1=CC=NC=C1,"4,4'-DIPYRIDYL",4.82,Log unit,n1ccc(cc1)c1ccncc1,pyridine (meta/para),20,?C
COC(=O)C1=CN=CC=C1,"Nicotinic acid, methyl ester",3.13,Log unit,n1cc(ccc1)C(=O)OC,pyridine (meta/para),22,?C
C1=CC2=C(C=C1)N=CC=C2,Quinoline,4.9,Log unit,n1c2c(ccc1)cccc2,quinoline,20,?C
OC1=CC=CC2=NC=CC=C12,5-Quinolinol,5.017,Log unit,n1c2c(c(ccc2)O)ccc1,quinoline,20,?C
COC1=CC2=C(C=CC=N2)C=C1,7-Methoxyquinoline,5.03,Log unit,n1c2c(ccc1)ccc(c2)OC,quinoline,20,?C
COC1=CC2=CC=CN=C2C=C1,6-Methoxyquinoline,5.03,Log unit,n1c2c(cc(cc2)OC)ccc1,quinoline,20,?C
CC1=CC=CC2=C1N=CC=C2,8-Methylquinoline,5.05,Log unit,n1c2c(ccc1)cccc2C,quinoline,20,?C
CC1=CC2=C(C=CC=C2)N=C1,3-METHYLQUINOLINE,5.17,Log unit,n1c2c(cc(c1)C)cccc2,quinoline,20,?C
CC1=CC2=CC=CN=C2C=C1,6-Methylquinoline,5.34,Log unit,n1c2c(cc(cc2)C)ccc1,quinoline,20,?C
CC1=CC2=C(C=CC=N2)C=C1,7-methylquinoline,5.34,Log unit,n1c2c(ccc1)ccc(c2)C,quinoline,20,?C
OC1=CC2=CC=CN=C2C=C1,6-hydroxyquinoline,5.15,Log unit,n1c2c(cc(cc2)O)ccc1,quinoline,20,?C
O=C1C=CC2=CC=CNC2=C1,7-QUINOLINOL,5.46,Log unit,[nH]1c2c(ccc(=O)c2)ccc1,quinoline,20,?C
CC1=CC=NC2=C1C=CC=C2,4-METHYLQUINOLINE,5.67,Log unit,n1c2c(c(cc1)C)cccc2,quinoline,20,?C
CC1=NC2=C(C=CC=C2)C=C1,2-METHYLQUINOLINE,5.71,Log unit,n1c2c(ccc1C)cccc2,quinoline,22,?C