Smiles,Name,pKa,pKa Unit,Ionizable center smiles,IC group,Temperature,Temperature Unit
[S-]C1=NC=CC=C1,2-Mercaptopyridine,9.8,Log unit,[S-]c1ncccc1,n,25,?C
[S-]C1=CN=CC=C1,3-Mercaptopyridine,7.03,Log unit,[S-]c1cnccc1,n,25,?C
Sc1ccc[n+]c1,3-Mercaptopyridine,2.26,Log unit,Sc1c[n+]ccc1,sh,25,?C
Sc1cc[n+]cc1,4-Mercaptopyridine,1.455,Log unit,Sc1cc[n+]cc1,sh,25,?C
[S-]C1=CC=NC=C1,4-Mercaptopyridine,8.86,Log unit,[S-]c1ccncc1,n,25,?C
OC(=O)c1[n+]c(C([O-])=O)c(C(O)=O)c(C(O)=O)c1C(O)=O,pentacarboxypyridine,0.8,Log unit,[O-]C(=O)c1[n+]c(c(c(c1C(=O)O)C(=O)O)C(=O)O)C(=O)O,4,25,?C
OC(=O)c1c([n+]c(C([O-])=O)c(C(O)=O)c1C(O)=O)C([O-])=O,pentacarboxypyridine,1.7,Log unit,[O-]C(=O)c1[n+]c(c(c(c1C(=O)O)C(=O)O)C(=O)O)C(=O)[O-],3,25,?C
OC(=O)c1c([n+]c(C([O-])=O)c(C(O)=O)c1C([O-])=O)C([O-])=O,pentacarboxypyridine,3.76,Log unit,[O-]C(=O)c1c(c([n+]c(c1C(=O)O)C(=O)[O-])C(=O)[O-])C(=O)O,co2h,25,?C
OC(=O)C1=C(N=C(C([O-])=O)C(C([O-])=O)=C1C([O-])=O)C([O-])=O,pentacarboxypyridine,4.61,Log unit,[O-]C(=O)c1c(c(nc(c1C(=O)O)C(=O)[O-])C(=O)[O-])C(=O)[O-],co2h,25,?C
C(CC1=CC=CC=N1)[N+]1CCCCC1,2-(piperidinoethyl)pyridine,3.59,Log unit,n1ccccc1CC[N+]1CCCCC1,n,25,?C
C(CC1=CN=CC=C1)[N+]1CCCCC1,3-(piperidinoethyl)pyridine,4.25,Log unit,n1cccc(c1)CC[N+]1CCCCC1,n,25,?C
C(CC1=CC=NC=C1)[N+]1CCCCC1,4-(piperidinoethyl)pyridine,4.7,Log unit,n1ccc(CC[N+]2CCCCC2)cc1,n,25,?C
C1=CN=C(C=C1)c1cccc[n+]1,2-(2-Pyridyl)pyridine,-0.2,Log unit,n1c(c2[n+]cccc2)cccc1,n,25,?C
C1=CN=C(C=C1)c1ccc[n+]c1,2-(3-pyridyl)pyridine,1.82,Log unit,n1c(c2c[n+]ccc2)cccc1,n,25,?C
C1=CN=C(C=C1)C1=CC=NC=C1,2-(4-pyridyl)pyridine,4.37,Log unit,n1c(c2ccncc2)cccc1,n,25,?C
OC(=O)c1cc(C(O)=O)c([n+]c1C([O-])=O)C([O-])=O,"2,3,5,6-tetracarboxypyridine",2.84,Log unit,[O-]C(=O)c1c(cc(c([n+]1)C(=O)[O-])C(=O)O)C(=O)O,co2h,25,?C
OC(=O)c1cc(C([O-])=O)c([n+]c1C([O-])=O)C([O-])=O,"2,3,5,6-tetracarboxypyridine",3.86,Log unit,[O-]C(=O)c1c([n+]c(c(c1)C(=O)O)C(=O)[O-])C(=O)[O-],co2h,25,?C
O=C(N1CCNCC1)C1=CC=CC=C1,"Piperazine, 1-benzoyl-",7.74,Log unit,N1CCN(C(=O)c2ccccc2)CC1,3,25,?C
CNC1=C(N=CC=N1)C(N)=N,"Pyrazine, 2-amidino-3-methylamino-",8.96,Log unit,N=C(c1c(nccn1)NC)N,neth,25,?C
NC1=CN=CC=N1,2-aminopyrazine,3,Log unit,n1ccncc1N,3,25,?C
NC1=NN=C(Cl)C=C1,3-Amino-6-chloropyridazine,3.85,Log unit,n1nc(Cl)ccc1N,3,25,?C
[O-]C1=CN=NC=C1,4-hydroxypyridazine,8.72,Log unit,[O-]c1cnncc1,2,25,?C
NC1=CC=C([S-])N=N1,3-amino-6-mercaptopyridazine,9.05,Log unit,[S-]c1ccc(nn1)N,4,25,?C
NC1=C(C=O)N=C(Cl)C=N1,2-amino-5-chloro-3-formylpyrazine,-0.68,Log unit,n1cc(Cl)nc(c1N)C=O,3,25,?C
NC1=C(C=O)N=CC(Cl)=N1,2-amino-6-chloro-3-formylpyrazine,-1.64,Log unit,n1c(Cl)cnc(c1N)C=O,3,25,?C
NC1=C(N=CC=N1)C#N,2-amino-3-cyanopyrazine,-0.43,Log unit,n1ccnc(c1N)C#N,4,25,?C
NC(=O)C1=CN=CC=N1,2-carbamoylpyrazine,-0.5,Log unit,n1ccnc(c1)C(=O)N,4,25,?C
CNC1=C(N=C(C)C(C)=N1)C(N)=O,"2-carbamoyl-5,6-dimethyl-3-methylaminopyrazine",2.68,Log unit,n1c(c(nc(c1NC)C(=O)N)C)C,6,25,?C
NC1=CN=C(C=O)C(N)=N1,"3,5-diamino-2-formylpyrazine",1.57,Log unit,n1c(c(C=O)ncc1N)N,5,25,?C
CS(=O)(=O)C1=NC=CN=C1,2-methylsulphonylpyrazine,-2.47,Log unit,n1cc(S(=O)(=O)C)ncc1,n,25,?C
CC1=CN=C(C)C=N1,"2,5-DIMETHYLPYRAZINE",1.97,Log unit,n1cc(ncc1C)C,2,25,?C
CC1=CN=CC(C)=N1,"2,6-DIMETHYLPYRAZINE",2.2,Log unit,n1c(cncc1C)C,2,25,?C
CN(C)C1=CN=CC=N1,"Pyrazine, 2-dimethylamino",3.24,Log unit,n1ccncc1N(C)C,2,25,?C
CNC1=C(N=CC=N1)C1=NC(C)=CC(C)=N1,"Pyrazine, 2-(4,6-dimethylpyrimidin-2yl)-3-methylamino-",2.6,Log unit,n1c(c2c(nccn2)NC)nc(cc1C)C,3,25,?C
Sc1cncc[n+]1,2-mercaptopyrazine,-0.73,Log unit,n1cc(S)[n+]cc1,sh,25,?C
[S-]C1=NC=CN=C1,2-mercaptopyrazine,6.3,Log unit,[S-]c1nccnc1,2,25,?C
COC1=CN=CC=N1,2-METHOXYPYRAZINE,0.75,Log unit,n1ccnc(c1)OC,2,25,?C
COc1ccc(S)[n+]n1,3-methoxy-6-mercaptopyridazine,-2.36,Log unit,O(c1n[n+]c(S)cc1)C,sh,25,?C
COC1=NN=C([S-])C=C1,3-methoxy-6-mercaptopyridazine,6.95,Log unit,[S-]c1nnc(OC)cc1,2,25,?C
COC1=NN=C(SC)C=C1,3-methoxy-6-methylthiopyridazine,1.84,Log unit,n1c(SC)ccc(n1)OC,2,25,?C
CC1=CN=CC=N1,2-Methylpyrazine,1.46,Log unit,n1ccncc1C,2,25,?C
CNC1=CN=CC=N1,2-METHYLAMINOPYRAZINE,3.39,Log unit,n1ccncc1NC,3,25,?C
CS(=O)(=O)C1=NN=CC=C1,3-methylsulphonylpyridazine,-1.01,Log unit,n1nc(S(=O)(=O)C)ccc1,1,25,?C
CS(=O)(=O)C1=CC=NN=C1,4-methylsulphonylpyridazine,-1.06,Log unit,n1ccc(S(=O)(=O)C)cn1,1,25,?C
CSC1=NC=CN=C1,2-METHYLTHIOPYRAZINE,0.515,Log unit,n1cc(SC)ncc1,1,25,?C
CC1=NC(C)=C(C)N=C1C,TETRAMETHYLPYRAZINE,3.575,Log unit,n1c(C)c(nc(c1C)C)C,2,25,?C
CC1=NC(C)=C(C)N=C1,TRIMETHYLPYRAZINE,2.8,Log unit,n1c(cnc(C)c1C)C,1,25,?C
NC1=CC=CN=N1,3-Aminopyridazine,5.19,Log unit,n1ncccc1N,3,25,?C
NC1=CN=NC=C1,4-aminopyridazine,6.65,Log unit,n1ncc(N)cc1,4,25,?C
CC1=CC=C(N)N=N1,3-amino-6-methylpyridine,5.29,Log unit,n1nc(ccc1N)C,3,25,?C
CCCCC1=CC=CN=N1,3-n-Butylpyridine,3.49,Log unit,n1ncccc1CCCC,2,25,?C
NC(=O)C1=CC=CN=N1,3-carbamoylpyridazine,1,Log unit,n1nc(ccc1)C(=O)N,4,25,?C
CC1=C(C)N=NC=C1,"3,4-dimethylpyridazine",4.1,Log unit,n1nc(C)c(C)cc1,2,25,?C
CC1=CN=NC(C)=C1,"3,5-dimethylpyridazine",4.11,Log unit,n1ncc(cc1C)C,2,25,?C
CC1=CN=NC=C1C,"4,5-dimethylpyridazine",4.13,Log unit,n1ncc(C)c(c1)C,2,25,?C
CCC1=CC=CN=N1,3-ethylpyridazine,3.58,Log unit,n1ncccc1CC,2,25,?C
CCC1=C(C)N=NC(C)=C1,"4-ethyl-3,6-dimethylpyridazine",4.73,Log unit,n1nc(C)c(CC)cc1C,2,25,?C
CCC1=CC=C(C)N=N1,3-ethyl-6-methylpyridazine,4.17,Log unit,n1nc(ccc1C)CC,2,25,?C
CCC1=C(C)N=NC=C1,4-ethyl-3-methylpyridazine,4.03,Log unit,n1nc(C)c(CC)cc1,2,25,?C
CCC1=CN=NC(C)=C1,4-ethyl-6-methylpyridazine,4.17,Log unit,n1ncc(cc1C)CC,2,25,?C
CCC1=C(C)N=NC(C)=C1C,"4-ethyl-3,5,6-trimethylpyridazine",5.17,Log unit,n1nc(C)c(c(c1C)CC)C,2,25,?C
[S-]C1=NN=CC=C1,3-mercaptopyridazine,8.3,Log unit,[S-]c1nnccc1,2,25,?C
Sc1cccn[n+]1,3-mercaptopyridazine,-2.68,Log unit,Sc1[n+]nccc1,sh,25,?C
[S-]C1=CN=NC=C1,4-mercaptopyridazine,6.55,Log unit,[S-]c1cnncc1,1,25,?C
COC1=CC=CN=N1,3-methoxypyridazine,2.48,Log unit,n1nc(OC)ccc1,2,25,?C
COC1=CN=NC=C1,4-methoxypyridazine,3.66,Log unit,n1ncc(OC)cc1,2,25,?C
CC1=CC=CN=N1,3-Methylpyridazine,3.46,Log unit,n1ncccc1C,2,25,?C
CC1=CN=NC=C1,4-Methylpyridazine,3.225,Log unit,n1ncc(C)cc1,2,25,?C
CCCC1=CC=C(C)N=N1,3-methyl-6-n-propylpyridazine,4.25,Log unit,n1nc(ccc1C)CCC,2,25,?C
CSC1=NN=CC=C1,3-methylthiopyridazine,2.26,Log unit,n1nc(SC)ccc1,1,25,?C
CSC1=CN=NC=C1,4-methylthiopyridazine,3.24,Log unit,n1ncc(SC)cc1,1,25,?C
CCCCCC1=CC=CN=N1,3-n-pentyl-pyridazine,3.7,Log unit,n1ncccc1CCCCC,2,25,?C
CCCC1=CC=CN=N1,3-n-propylpyridazine,3.59,Log unit,n1ncccc1CCC,2,25,?C
CC1=CC(C)=C(C)N=N1,"3,4,6-trimethylpyridazine",4.81,Log unit,n1nc(C)c(C)cc1C,2,25,?C
NC1=NC=NC=C1,4-Aminopyrimidine,5.69,Log unit,n1cnc(N)cc1,4,25,?C
CC1=NC(N)=C(CN)C=N1,"Pyrimidine, 4-amino-5-aminomethyl-2-methyl-",7.1,Log unit,NCc1cnc(nc1N)C,4,25,?C
CC1=NC(N)=C(C[NH2+])C=N1,"Pyrimidine, 4-amino-5-aminomethyl-2-methyl-",4,Log unit,n1cc(c(N)nc1C)C[NH2+],4,25,?C
NC1=NC=NC=C1Br,4-amino-5-bromopyrimidine,3.67,Log unit,n1cc(Br)c(nc1)N,4,25,?C
CC(C)(C)C1=NC(N)=NC=C1Br,2-amino-5-bromo-4-t-butylpyrimidine,2.88,Log unit,n1cc(Br)c(nc1N)C(C)(C)C,4,25,?C
CC1=NC(N)=NC=C1Br,2-amino-5-bromo-4-methylpyrimidine,2.61,Log unit,n1cc(Br)c(nc1N)C,4,25,?C
CC1=NC=C(Br)C(N)=N1,4-amino-5-bromo-2-methylpyrimidine,4.08,Log unit,n1cc(Br)c(nc1C)N,4,25,?C
NC(N)=NN(=O)=O,nitro-guanidine,-0.93,Log unit,NC(=NN(=O)=O)N,neth,25,?C
NC(N)=NN=O,nitroso-Guanidine,2.13,Log unit,O=NN=C(N)N,neth,25,?C
NC(N)=NC#N,Cyano-Guanidine,-0.4,Log unit,N(=C(N)N)C#N,neth,25,?C
CN=C(N(C)C)N(C)C,pentmethylaguanidine,13.8,Log unit,N(=C(N(C)C)N(C)C)C,neth,25,?C
NC(N)=NC1=CC=CC=C1,N-Phenylguanidine,10.8,Log unit,N(=C(N)N)c1ccccc1,neth,25,?C
CN(C)C(=N)N(C)C,"N,N,N',N'-tetramethylaguanidine",13.9,Log unit,N=C(N(C)C)N(C)C,neth,25,?C
CNC(=NC)N(C)C,"N,N,N',N''-tetramethylaguanidine",13.9,Log unit,N(=C(N(C)C)NC)C,neth,25,?C
CNC(=N)N(C)C,"N,N',N'-trimethylaguanidine",13.9,Log unit,N=C(N(C)C)NC,neth,25,?C
CNC(=NN(=O)=O)N(C)C,"N,N',N'-tetra-nitro-methylaguanidine",-0.82,Log unit,N(C(=NN(=O)=O)N(C)C)C,neth,25,?C
CNC(NC)=NC,"N,N',N''-tetramethylaguanidine",13.9,Log unit,N(=C(NC)NC)C,neth,25,?C
N1C=NC2=C1C1=C(C=CC=C1)C=C2,"1(3)H-napth[1,2-d]imidazole",5.27,Log unit,n1c2ccc3ccccc3c2[nH]c1,nethR,25,?C
N1C=NC2=CC3=C(C=CC=C3)C=C12,"1H-napth[1,2-d]imidazole",5.21,Log unit,n1c[nH]c2cc3ccccc3cc12,nethR,25,?C
CCC1=NC2=CC3=C(C=CC=C3)C=C2N1,"2-ethyl-1H-napth[1,2-d]imidazole",6.13,Log unit,n1c([nH]c2cc3ccccc3cc12)CC,nethR,25,?C
CC1=NC2=CC3=C(C=CC=C3)C=C2N1,"2-methyl-1H-napth[1,2-d]imidazole",6.1,Log unit,n1c([nH]c2cc3ccccc3cc12)C,nethR,25,?C
N1C=NC2=CC=CC3=C2C1=CC=C3,Perimidine,5.27,Log unit,n1c[nH]c2cccc3cccc1c23,nethR,25,?C
N1C=NC2=CC=CC=C12,Benzimidazole,5.6,Log unit,n1c[nH]c2ccccc12,nethR,25,?C
N1C=NC2=CC=CC=C12,Benzimidazole,12.86,Log unit,[nH]1cnc2ccccc12,nr2_a,25,?C
NC1=C2N=CNC2=CC=C1,4-aminobenzimidazole,5.3,Log unit,n1c[nH]c2cccc(c12)N,nethR,25,?C
NC1=C2[N+]=CNC2=CC=C1,4-amonobenzimidazole,1.5,Log unit,[nH]1c[n+]c2c(N)cccc12,4,25,?C
NC1=CC=C2NC=NC2=C1,5-Aminobenzimidazole,6.1,Log unit,n1c[nH]c2ccc(cc12)N,nethR,25,?C
NC1=CC=C2NC=[N+]C2=C1,5-amonobenzimidazole,3.3,Log unit,Nc1cc2[n+]c[nH]c2cc1,4,25,?C
NC1=CC=C2NC(CC3=CC=CC=C3)=NC2=C1,5-amino-2-benzyl-benzimidazole,6.4,Log unit,n1c([nH]c2ccc(cc12)N)Cc1ccccc1,nethR,25,?C
NC1=CC=C2NC(CC3=CC=CC=C3)=[N+]C2=C1,5-amono-2-benzyl-benzimidazole,3.3,Log unit,[nH]1c(Cc2ccccc2)[n+]c2cc(N)ccc12,4,25,?C
CC1=NC2=C(N)C=CC=C2N1,4-amino-2-methylbenzimidazole,5.9,Log unit,n1c([nH]c2cccc(c12)N)C,nethR,25,?C
CC1=[N+]C2=C(N)C=CC=C2N1,4-amino-2-methylbenzimidazole,1.7,Log unit,[nH]1c(C)[n+]c2c(N)cccc12,4,25,?C
CC1=NC2=CC(N)=CC=C2N1,5-amino-2-methylbenzimidazole,6.7,Log unit,n1c([nH]c2ccc(cc12)N)C,nethR,25,?C
CC1=[N+]C2=CC(N)=CC=C2N1,5-amino-2-methylbenzimidazole,3.42,Log unit,[nH]1c(C)[n+]c2cc(N)ccc12,4,25,?C
CCC1=NC2=CC=CC=C2N1,2-Ethylbenzimidazole,6.2,Log unit,n1c([nH]c2ccccc12)CC,nethR,25,?C
CC1=NC2=CC=CC=C2N1,2-methylbenzimidazole,6.2,Log unit,n1c([nH]c2ccccc12)C,nethR,25,?C
CC1=NC2=CC=CC=C2N1,2-methylbenzimidazole,13.8,Log unit,[nH]1c(C)nc2ccccc12,nr2_a,25,?C
CCC1=NC2=CC=CC=C2N1,2-isopropyl-benzimidazole,6.21,Log unit,n1c([nH]c2ccccc12)CC,nethR,25,?C
CN(C)CCC1=NC2=CC=CC=C2N1,2-dimethylaminoethyl-benzimidazole,6.2,Log unit,n1c([nH]c2ccccc12)CCN(C)C,nethR,25,?C
N1C2=CC=CC=C2N=C1C1=CC=CC=C1,2-phenyl-benzimidazole,11.91,Log unit,[nH]1c(c2ccccc2)nc2ccccc12,nr2_a,25,?C
O=N(=O)C1=CC=C2NC=NC2=C1,5-nitroobenzimidazole,4.4,Log unit,n1c[nH]c2ccc(cc12)N(=O)=O,nethR,25,?C
O=N(=O)C1=CC=C2NC=NC2=C1,5-nitroobenzimidazole,10.84,Log unit,[nH]1cnc2cc(N(=O)=O)ccc12,nr2_a,25,?C
NC1=NC2=C(S1)C=CC=C2,2-amino-benzothiazole,4.3,Log unit,n1c2ccccc2sc1N,nethR,25,?C
COC1=CC=CC2=C1N=C(N)S2,2-amino-4-methoxy-benzothiazole,4.29,Log unit,n1c2c(cccc2sc1N)OC,nethR,25,?C
COC1=CC2=C(SC(N)=N2)C=C1,2-amino-5-methoxy-benzothiazole,4.35,Log unit,n1c2cc(ccc2sc1N)OC,nethR,25,?C
COC1=CC2=C(C=C1)N=C(N)S2,2-amino-6-methoxy-benzothiazole,4.5,Log unit,n1c2ccc(cc2sc1N)OC,nethR,25,?C
CC1=CC=CC2=C1N=C(N)S2,2-amino-4-methyl-benzothiazole,4.7,Log unit,n1c2c(cccc2sc1N)C,nethR,25,?C
CC1=CC2=C(SC(N)=N2)C=C1,2-amino-5-methyl-benzothiazole,4.6,Log unit,n1c2cc(ccc2sc1N)C,nethR,25,?C
CC1=CC2=C(C=C1)N=C(N)S2,2-Amino-6-methyl-benzothiazole,4.6,Log unit,n1c2ccc(cc2sc1N)C,nethR,25,?C
CC1=CC=CC2=C1SC(N)=N2,2-amino-7-methyl-benzothiazole,4.6,Log unit,n1c2cccc(C)c2sc1N,nethR,25,?C
N1N=CC2=CC=CC=C12,33 1H-indazole,13.8,Log unit,[nH]1ncc2ccccc12,nr2_a,25,?C
NC1=NNC2=CC=CC=C12,33 1H-3-aminoindazole,3.12,Log unit,n1[nH]c2ccccc2c1N,4,25,?C
NC1=C2C=NNC2=CC=C1,33 1H-4-aminoindazole,3.26,Log unit,Nc1c2cn[nH]c2ccc1,4,25,?C
NC1=CC=C2NN=CC2=C1,33 1H-5-aminoindazole,5.12,Log unit,Nc1cc2cn[nH]c2cc1,4,25,?C
NC1=CC=C2C=NNC2=C1,33 1H-6-aminoindazole,3.99,Log unit,Nc1ccc2cn[nH]c2c1,4,25,?C
NC1=C2NN=CC2=CC=C1,33 1H-7-aminoindazole,3.09,Log unit,n1[nH]c2c(cccc2c1)N,4,25,?C
O=N(=O)C1=C2C=NNC2=CC=C1,33 1H-4-nitroindazole,11.57,Log unit,[nH]1ncc2c(N(=O)=O)cccc12,nr2_a,25,?C
O=N(=O)C1=CC=C2NN=CC2=C1,33 1H-5-nitroindazole,11.69,Log unit,[nH]1ncc2cc(N(=O)=O)ccc12,nr2_a,25,?C
O=N(=O)C1=CC=C2C=NNC2=C1,33 1H-6-nitroindazole,11.67,Log unit,[nH]1ncc2ccc(N(=O)=O)cc12,nr2_a,25,?C
O=N(=O)C1=C2NN=CC2=CC=C1,33 1H-7-nitroindazole,12.48,Log unit,[nH]1ncc2cccc(N(=O)=O)c12,nr2_a,25,?C
Nc1cc([n+]c(c1)C([O-])=O)C(O)=O,"4-amino-2,6-dicarboxypyridine",1.8,Log unit,[O-]C(=O)c1[n+]c(cc(N)c1)C(=O)O,co2h,25,?C
Nc1[n+]cccc1C(O)=O,2-amino-3-carboxypyridine,2.4,Log unit,OC(=O)c1c([n+]ccc1)N,co2h,25,?C
Nc1ccc[n+]c1C(O)=O,3-amino-2-carboxypyridine,1.5,Log unit,OC(=O)c1[n+]cccc1N,co2h,25,?C
[NH2+]CCC1=CC=CC=N1,2-(2-aminoethyl)-pyridine,3.8,Log unit,n1ccccc1CC[NH2+],n,25,?C
NC1=CC([O-])=CC=N1,2-amino-4-hydroxypyridine,10.7,Log unit,[O-]c1ccnc(c1)N,n,25,?C
NC1=CC=CC([O-])=N1,2-amino-6-hydroxypyridine,11.38,Log unit,[O-]c1nc(ccc1)N,n,25,?C
NC1=C([O-])N=CC=C1,3-Amino-2-hydroxypyridine,12.57,Log unit,[O-]c1ncccc1N,n,25,?C
NC1=CN=CC=C1[O-],3-amino-4-hydroxypyridine,11.38,Log unit,[O-]c1ccncc1N,n,25,?C
Nc1c[n+]ccc1O,3-amino-4-hydroxypyridine,3.84,Log unit,Oc1cc[n+]cc1N,oh,25,?C
NC1=CC=NC([O-])=C1,4-amino-2-hydroxypyridine,13.54,Log unit,[O-]c1nccc(N)c1,n,25,?C
NC1=CC=C([O-])N=C1,5-amino-2-hydroxypyridine,11.65,Log unit,[O-]c1ncc(cc1)N,n,25,?C
Nc1c[n+]ccc1S,3-amino-4-mercaptopyridine,1.6,Log unit,Sc1cc[n+]cc1N,sh,25,?C
NC1=CN=CC=C1[S-],3-amino-4-mercaptopyridine,9.2,Log unit,[S-]c1ccncc1N,n,25,?C
[NH2+]CC1=CC=CC=N1,2-aminomethylpyridine,3.1,Log unit,n1ccccc1C[NH2+],n,25,?C
NC1=CC=C(C=C1)c1cccc[n+]1,2-p-aminophenylpyridine,2.47,Log unit,Nc1ccc(c2[n+]cccc2)cc1,nr2,25,?C
NC1=CC=C(C=C1)c1cc[n+]cc1,2-p-aminophenylpyridine,2.75,Log unit,Nc1ccc(c2cc[n+]cc2)cc1,nr2,25,?C
C[N+](C)CCN(CC1=CC=CC=C1)C1=CC=CC=N1,2-[benzyl(2-dimethylaminoethyl)amino]-pyridine,3.92,Log unit,n1ccccc1N(Cc1ccccc1)CC[N+](C)C,n,25,?C
CN(C)CCN(CC1=CC=CC=C1)C1=CC=CC=N1,2-[benzyl(2-dimethylaminoethyl)amino]-pyridine,8.5,Log unit,N(CCN(c1ncccc1)Cc1ccccc1)(C)C,2,25,?C
OC(=O)c1cccc[n+]1,2-Carboxypyridine,1,Log unit,OC(=O)c1[n+]cccc1,co2h,25,?C
OC(=O)c1ccc[n+]c1,3-Carboxypyridine,2.03,Log unit,OC(=O)c1c[n+]ccc1,co2h,25,?C
OC(=O)c1cc[n+]cc1,4-Carboxypyridine,1.755,Log unit,OC(=O)c1cc[n+]cc1,co2h,25,?C
Cc1cccc([n+]1)C(O)=O,2-Carboxy-6-methylpyridine,0.9,Log unit,OC(=O)c1[n+]c(ccc1)C,co2h,25,?C
[O-]C1=CC(Cl)=NC=C1,2-chloro-4-hydroxypyridine,6.84,Log unit,[O-]c1cc(Cl)ncc1,n,25,?C
Oc1cc[n+]c(Cl)c1,2-chloro-4-hydroxypyridine,2.07,Log unit,Oc1cc(Cl)[n+]cc1,oh,25,?C
[O-]C1=NC=C(Cl)C=C1,5-Chloro-2-hydroxypyridine,10.03,Log unit,[O-]c1ncc(Cl)cc1,n,25,?C
Oc1ccc(Cl)c[n+]1,5-Chloro-2-hydroxypyridine,0.01,Log unit,Oc1[n+]cc(Cl)cc1,oh,25,?C
C(C=C(C1=CC=CC=C1)C1=CC=CC=N1)[N+]1CCCC1,2-(1-p-chlorophenyl-3-pyrrolidino)prop-1-enylpyridine,3.2,Log unit,n1ccccc1C(=CC[N+]1CCCC1)c1ccccc1,n,25,?C
CN(C)CCN(CC1=CC=C(Cl)S1)C1=NC=CC=C1,2-[(5-chloro-2-thienyl)(2-dimethylaminoethyl)amino]-pyridine,8.42,Log unit,N(CCN(Cc1sc(Cl)cc1)c1ncccc1)(C)C,2,25,?C
OC(=O)c1[n+]cccc1C([O-])=O,"2,3-dicarboxypyridine",2.43,Log unit,OC(=O)c1[n+]cccc1C(=O)[O-],co2h,25,?C
[O-]C(=O)C1=C(N=CC=C1)C([O-])=O,"2,3-dicarboxypyridine",5.06,Log unit,[O-]C(=O)c1c(nccc1)C(=O)[O-],n,25,?C
[O-]C(=O)C1=CC=CC(=N1)C([O-])=O,"2,6-Dicarboxypyridine",4.68,Log unit,[O-]C(=O)c1nc(ccc1)C(=O)[O-],n,25,?C
OC(=O)c1cccc([n+]1)C([O-])=O,"2,6-Dicarboxypyridine",1.8,Log unit,OC(=O)c1[n+]c(ccc1)C(=O)[O-],co2h,25,?C
[O-]C(=O)C1=CC=NC=C1C([O-])=O,"3,4-dicarboxypyridine",5.07,Log unit,[O-]C(=O)c1cnccc1C(=O)[O-],n,25,?C
OC(=O)c1c[n+]cc(c1)C(O)=O,"3,5-dicarboxypyridine",1.4,Log unit,OC(=O)c1c[n+]cc(c1)C(=O)O,co2h,25,?C
OC(=O)c1c[n+]cc(c1)C([O-])=O,"3,5-dicarboxypyridine",2.42,Log unit,[O-]C(=O)c1c[n+]cc(c1)C(=O)O,co2h,25,?C
OC(=O)c1cc(Cl)cc([n+]1)C([O-])=O,"2,6-dicarboxy-4-chloropyridine",1.4,Log unit,[O-]C(=O)c1cc(Cl)cc([n+]1)C(=O)O,co2h,25,?C
[O-]C(=O)C1=CC(Cl)=CC(=N1)C([O-])=O,"2,6-dicarboxy-4-chloropyridine",3.75,Log unit,[O-]C(=O)c1cc(Cl)cc(n1)C(=O)[O-],n,25,?C
Cc1[n+]c(C)c(cc1C(O)=O)C(O)=O,"3,5-dicarboxy-2,6-dimethylpyridine",2.02,Log unit,OC(=O)c1c([n+]c(C)c(c1)C(=O)O)C,co2h,25,?C
Cc1[n+]c(C)c(cc1C(O)=O)C([O-])=O,"3,5-dicarboxy-2,6-dimethylpyridine",2.52,Log unit,[O-]C(=O)c1c([n+]c(C)c(c1)C(=O)O)C,co2h,25,?C
[O-]C(=O)C1=CC([O-])=CC(=N1)C([O-])=O,"2,6-dicarboxy-4-hydroxypyridine",10.85,Log unit,[O-]c1cc(nc(c1)C(=O)[O-])C(=O)[O-],n,25,?C
Oc1cc([n+]c(c1)C([O-])=O)C([O-])=O,"2,6-dicarboxy-4-hydroxypyridine",3.18,Log unit,[O-]C(=O)c1[n+]c(cc(O)c1)C(=O)[O-],oh,25,?C
OC(=O)c1cc(O)cc([n+]1)C([O-])=O,"2,6-dicarboxy-4-hydroxypyridine",1.3,Log unit,[O-]C(=O)c1[n+]c(cc(c1)O)C(=O)O,co2h,25,?C
C[N+](C)CCC1=CN=CC=C1,3-(dimethylaminoethyl)-pyridine,4.3,Log unit,n1cccc(c1)CC[N+](C)C,n,25,?C
C[N+](C)CCC1=CC=NC=C1,4-(DIMETHYLAMINOETHYL)PYRIDINE,4.66,Log unit,n1ccc(CC[N+](C)C)cc1,n,25,?C
COC1=CC=C(CN(CCN(C)C)C2=CC=CC=N2)C=C1,2-[(2-dimethylaminoethyl)(p-methoxybenzyl)amino]-pyridine,8.91,Log unit,N(CCN(c1ncccc1)Cc1ccc(OC)cc1)(C)C,2,25,?C
COC1=CC=C(CN(CC[N+](C)C)C2=CC=CC=N2)C=C1,2-[(2-dimethylaminoethyl)(p-methoxybenzyl)amino]-pyridine,4.02,Log unit,n1ccccc1N(Cc1ccc(OC)cc1)CC[N+](C)C,n,25,?C
C[N+](C)CCN(CC1=CC=CS1)C1=NC=CC=C1,2-[(2-dimethylaminoethyl)-2-thienylamino]-pyridine,3.66,Log unit,n1c(N(Cc2sccc2)CC[N+](C)C)cccc1,n,25,?C
NC(=N)C(O)C1=CC=CC=C1,(C-amidino-C-hydroxy)methylbenzene,11.1,Log unit,N=C(C(c1ccccc1)O)N,neth,25,?C
CCC(O)(C(N)=N)C1=CC=CC=C1,(1-amidineo-1-hydroxy)propylbenzene,11.4,Log unit,OC(c1ccccc1)(C(=N)N)CC,neth,25,?C
NC(CC1=CC=CC=C1)=NO,(2-amino-2-hydroxyimino)ethylbenzene,5.2,Log unit,N(=C(Cc1ccccc1)N)O,neth,25,?C
NC(=NO)C1=CC=CC=C1,C-amino-C-hydroxyiminoethylbenzene,4.79,Log unit,N(=C(c1ccccc1)N)O,neth,25,?C
CC1=CC=CC=C1C(N)=NO,1-(C-amino-C-hydroxyiminomethyl)-2-methylbenzene,3.99,Log unit,N(=C(c1ccccc1C)N)O,neth,25,?C
CC1=CC=C(C=C1)C(N)=NO,1-(C-amino-C-hydroxyiminomethyl)-4-methylbenzene,5.1,Log unit,N(=C(c1ccc(cc1)C)N)O,neth,25,?C
NC(=N)NC1=CC=C(Cl)C=C1,1-chloro-4-guanidinobenzene,10.9,Log unit,N=C(Nc1ccc(Cl)cc1)N,neth,25,?C
ClC1=CC=CC=C1C(=N)C1=CC=CC=C1,1-chloro-2-iminobenzylbenzene,5.9,Log unit,N=C(c1c(Cl)cccc1)c1ccccc1,neth,25,?C
ClC1=CC=CC=C1C(=N)C1=CC=CC=C1,1-chloro-3-iminobenzylbenzene,6,Log unit,N=C(c1c(Cl)cccc1)c1ccccc1,neth,25,?C
CNC(=N)NC1=CC=C(Cl)C=C1,1-chloro-4-N3-methylguanidinobenzene,11.15,Log unit,N=C(Nc1ccc(Cl)cc1)NC,neth,25,?C
OC1=CC=C(C(=N)C2=CC=CC=C2)C(O)=C1,"1,3-dihydroxy-4-iminobenzylbenzene",9.3,Log unit,Oc1c(C(=N)c2ccccc2)ccc(O)c1,neth,25,?C
OC1=CC(=CC=C1)C(=N)C1=CC=CC=C1,1-hydroxy-3-iminobenzylbenzene,7,Log unit,N=C(c1ccccc1)c1cccc(c1)O,neth,25,?C
OC1=CC=C(C=C1)C(=N)C1=CC=CC=C1,1-hydroxy-4-iminobenzylbenzene,7.85,Log unit,N=C(c1ccccc1)c1ccc(O)cc1,neth,25,?C
COC1=CC(=CC=C1O)C(=N)C1=CC=CC=C1,1-hydroxy-4-iminobenzyl-3-methoxybenzene,8.3,Log unit,N=C(c1ccccc1)c1ccc(O)c(c1)OC,neth,25,?C
N=C(C1=CC=CC=C1)C1=CC=CC=C1,iminobenzylbenzene,7.48,Log unit,N=C(c1ccccc1)c1ccccc1,neth,25,?C
COC1=CC=C(C(=N)C2=CC=CC=C2)C(OC)=C1,"1-iminobenzyl-2,4-dimethoxybenzene",8.3,Log unit,N=C(c1ccccc1)c1ccc(OC)cc1OC,neth,25,?C
CC1=CC=C(C(=N)C2=CC=CC=C2)C(C)=C1,"1-iminobenzyl-2,4-dimethylbenzene",7.5,Log unit,N=C(c1ccccc1)c1ccc(C)cc1C,neth,25,?C
CC1=CC=C(C)C(=C1)C(=N)C1=CC=CC=C1,"1-iminobenzyl-2,5-dimethylbenzene",7.5,Log unit,N=C(c1ccccc1)c1cc(ccc1C)C,neth,25,?C
CC1=CC=CC(C)=C1C(=N)C1=CC=CC=C1,"1-iminobenzyl-2,6-dimethylbenzene",8,Log unit,N=C(c1ccccc1)c1c(cccc1C)C,neth,25,?C
CC1=CC(=CC(C)=C1)C(=N)C1=CC=CC=C1,"1-iminobenzyl-3,5-dimethylbenzene",7.1,Log unit,N=C(c1ccccc1)c1cc(cc(c1)C)C,neth,25,?C
COC1=CC=CC=C1C(=N)C1=CC=CC=C1,1-iminobenzyl-2-methoxybenzene,7.3,Log unit,N=C(c1ccccc1)c1ccccc1OC,neth,25,?C
COC1=CC(=CC=C1)C(=N)C1=CC=CC=C1,1-iminobenzyl-3-methoxybenzene,7.7,Log unit,N=C(c1ccccc1)c1cccc(c1)OC,neth,25,?C
CC1=CC=CC=C1C(=N)C1=CC=CC=C1,1-iminobenzyl-2-methylbenzene,7.5,Log unit,N=C(c1ccccc1)c1ccccc1C,neth,25,?C
COC(=N)C1=CC=CC=C1,iminomethoxymethylbenzene,6.1,Log unit,N=C(c1ccccc1)OC,neth,25,?C
C1CNCCNC1,"1,4-Diazacycloheptane",10.65,Log unit,N1CCNCCC1,3,25,?C
N1C=CN=C1,Imidazole,6.9365,Log unit,n1c[nH]cc1,nethR,25,?C
N1C=CN=C1,Imidazole,14.5,Log unit,[nH]1cncc1,nr2_a,25,?C
CC(=O)OCCC1CNC=N1,"Imidazole, 4-(2-acctoxyethyl)-",7.27,Log unit,N1=CNCC1CCOC(=O)C,nethR,25,?C
NCCC1=CNC=N1,"Imidazole,4(5)-(2aminoethyl)-",6.2,Log unit,n1c[nH]cc1CCN,nethR,25,?C