Smiles,Name,pKa,pKa Unit,Ionizable center smiles,IC group,Temperature,Temperature Unit
CC(C)(C)C1=CC(Br)=CC(=C1O)C(C)(C)C,"4-bromo-2,6-di-tert-butyl-phenol",10.83,Log unit,Oc1c(cc(Br)cc1C(C)(C)C)C(C)(C)C,,25,?C
CC(C)(C)C1=CC(O)=CC(=C1C([O-])=O)C(C)(C)C,"3,5-di-tert-butyl-4-hydroxy-benzoic acid",10.8,Log unit,Oc1cc(C(C)(C)C)c(C(=O)[O-])c(C(C)(C)C)c1,,25,?C
CC1=CC(=C(O)C(=C1)C(C)(C)C)C(C)(C)C,"2,6-Di-tert-butyl-4-methyl-phenol",12.23,Log unit,Oc1c(cc(C)cc1C(C)(C)C)C(C)(C)C,,25,?C
CCCC1=CC(CCC)=C(O)C(CCC)=C1,"2,4,6-tripropyl-phenol",11.59,Log unit,Oc1c(cc(CCC)cc1CCC)CCC,,25,?C
COC1=CC(=C(O)C(=C1)C(C)(C)C)C(C)(C)C,"2,6-di-tert-butyl-4-methoxy-phenol",12.15,Log unit,Oc1c(cc(OC)cc1C(C)(C)C)C(C)(C)C,,25,?C
CCOC(=O)C1=CC(=C(O)C(=C1)C(C)(C)C)C(C)(C)C,"2,6-di-tert-butyl-4-ethoxycarbonyl-phenol",9.5,Log unit,Oc1c(cc(C(=O)OCC)cc1C(C)(C)C)C(C)(C)C,,25,?C
CC(C)(C)C1=CC(=C(O)C(=C1)C(C)(C)C)C(C)(C)C,"2,4,6-tri-tert-butyl-phenol",12.19,Log unit,Oc1c(cc(C(C)(C)C)cc1C(C)(C)C)C(C)(C)C,,25,?C
OC1=CC=C(C2=C1C=CC=C2)S([O-])(=O)=O,4-Hydroxy-1-naphthalenesulfonic acid,8.32,Log unit,Oc1ccc(S(=O)(=O)[O-])c2ccccc12,,25,?C
OC1=CC=CC2=C1C=CC=C2S([O-])(=O)=O,5-hydroxy-1-naphthalenesulfonic acid,9.11,Log unit,Oc1c2cccc(S(=O)(=O)[O-])c2ccc1,,25,?C
OC1=CC2=C(C=C1)C(=CC=C2)S([O-])(=O)=O,7-hydroxy-1-naphthalenesulfonic acid,9.48,Log unit,Oc1cc2cccc(S(=O)(=O)[O-])c2cc1,,25,?C
OC1=CC=CC2=C1C(=CC=C2)S([O-])(=O)=O,7-hydroxy-1-naphthalenesulfonic acid,13.02,Log unit,Oc1cccc2cccc(S(=O)(=O)[O-])c12,,25,?C
OC1=C(C=CC2=C1C=CC=C2)S([O-])(=O)=O,1-hydroxy-2-naphthalenesulfonic acid,9.47,Log unit,Oc1c(S(=O)(=O)[O-])ccc2ccccc12,,25,?C
OC1=CC(=CC2=C1C=CC=C2)S([O-])(=O)=O,4-Hydroxy-2-naphthalenesulfonic acid,8.5,Log unit,Oc1cc(cc2ccccc12)S(=O)(=O)[O-],,25,?C
OC1=CC2=C(C=C1)C=C(C=C2)S([O-])(=O)=O,6-HYDROXY-2-NAPHTHALENESULFONIC ACID,9.13,Log unit,Oc1cc2ccc(cc2cc1)S(=O)(=O)[O-],,25,?C
OC1=CC2=C(C=C1)C=CC(=C2)S([O-])(=O)=O,7-Hydroxy-2-naphthalenesulfonic acid,9.35,Log unit,Oc1ccc2ccc(cc2c1)S(=O)(=O)[O-],,25,?C
OC1=CC2=C(C=CC(=C2)S([O-])(=O)=O)C=C1[O-],"6,7-Dihydroxy-2-naphthalenesulfonic acid",11.85,Log unit,Oc1c(cc2ccc(cc2c1)S(=O)(=O)[O-])[O-],,25,?C
OC1=CC2=C(C=C1)C=C(C=C2S([O-])(=O)=O)S([O-])(=O)=O,"7-Hydroxy-1,3-naphthalenedisulfonic acid",9,Log unit,Oc1ccc2cc(cc(S(=O)(=O)[O-])c2c1)S(=O)(=O)[O-],,25,?C
OC1=CC2=C(C=CC=C2S([O-])(=O)=O)C(=C1)S([O-])(=O)=O,"386 3-hydroxy-1,5-naphthalenedisulfonic acid",8.7,Log unit,Oc1cc(S(=O)(=O)[O-])c2cccc(c2c1)S(=O)(=O)[O-],,20,?C
OC1=CC=C(C2=C1C=C(C=C2)S([O-])(=O)=O)S([O-])(=O)=O,"386 4-hydroxy-1,6-naphthalenedisulfonic acid",7.6,Log unit,Oc1ccc(S(=O)(=O)[O-])c2ccc(cc12)S(=O)(=O)[O-],,20,?C
OC1=CC2=C(C=C(C=C2)S([O-])(=O)=O)C=C1S([O-])(=O)=O,"387 3-hydroxy-2,7-naphthalenedisulfonic acid",9.6,Log unit,Oc1c(cc2cc(ccc2c1)S(=O)(=O)[O-])S(=O)(=O)[O-],,20,?C
OC1=CC(=CC2=C1C=CC(=C2)S([O-])(=O)=O)S([O-])(=O)=O,"387 4-hydroxy-2,7-naphthalenedisulfonic acid",8.64,Log unit,Oc1cc(cc2cc(ccc12)S(=O)(=O)[O-])S(=O)(=O)[O-],,20,?C
OC1=CC=C(C=C1)N=NC1=CC=CC=C1C([O-])=O,2-carboxy-4'-hydroxyazobenzene,8.2,Log unit,Oc1ccc(N=Nc2ccccc2C(=O)[O-])cc1,,25,?C
OC1=CC=C(C=C1)N=NC1=CC=C(C=C1)C([O-])=O,4-carboxy-4'-hydroxy-azobenzene,7.9,Log unit,Oc1ccc(N=Nc2ccc(cc2)C(=O)[O-])cc1,,25,?C
OC1=CC=C(C=C1)N=NC1=CC=CC=C1,4-hydroxy-azobenzene,-0.93,Log unit,Oc1ccc(N=Nc2ccccc2)cc1,,25,?C
OC1=CC=C(C=C1)N=NC1=CC=CC=C1,4-hydroxy-azobenzene,8.2,Log unit,Oc1ccc(N=Nc2ccccc2)cc1,,25,?C
OC1=C(C=C(C=C1)N=NC1=CC(=CC=C1)N(=O)=O)C([O-])=O,2-hydroxy-5-(3-nitrophenylazo)benzoic acid,11.23,Log unit,Oc1c(C(=O)[O-])cc(cc1)N=Nc1cc(N(=O)=O)ccc1,,25,?C
OC1=C(C=C(C=C1)N=NC1=CC=C(C=C1)N(=O)=O)C([O-])=O,2-hydroxy-5-(4-nitrophenylazo)benzoic acid,10.91,Log unit,Oc1c(C(=O)[O-])cc(cc1)N=Nc1ccc(N(=O)=O)cc1,,25,?C
CC1=C(C=CC=C1)N=NC1=CC(C(O)=O)=C(O)C=C1,2-hydroxy-5-(2-methylphenylazo)benzoic acid,2.12,Log unit,OC(=O)c1c(O)ccc(N=Nc2c(C)cccc2)c1,,25,?C
CC1=C(C=CC=C1)N=NC1=CC(C([O-])=O)=C(O)C=C1,2-hydroxy-5-(2-methylphenylazo)benzoic acid,11.61,Log unit,Oc1c(C(=O)[O-])cc(cc1)N=Nc1c(C)cccc1,,25,?C
CC1=CC=CC(=C1)N=NC1=CC(C([O-])=O)=C(O)C=C1,2-hydroxy-5-(3-methylphenylazo)benzoic acid,11.61,Log unit,Oc1c(C(=O)[O-])cc(cc1)N=Nc1cc(C)ccc1,,25,?C
CC1=CC=C(C=C1)N=NC1=CC(C([O-])=O)=C(O)C=C1,2-hydroxy-5-(4-methylphenylazo)benzoic acid,11.63,Log unit,Oc1c(C(=O)[O-])cc(cc1)N=Nc1ccc(C)cc1,,25,?C
CC1=CC(N=NC2=C(C=CC=C2)C([O-])=O)=C(O)C=C1,2-(2-hydroxy-5-methylphenylazo)benzoic acid,11.4,Log unit,Oc1c(N=Nc2c(C(=O)[O-])cccc2)cc(cc1)C,,25,?C
COC1=CC=C(C=C1)N=NC1=CC(C([O-])=O)=C(O)C=C1,2-hydroxy-5-(4-methyoxyphenylazo)benzoic acid,11.62,Log unit,Oc1c(C(=O)[O-])cc(cc1)N=Nc1ccc(OC)cc1,,25,?C
OC1=C(C=C(N=NC2=C(C=CC=C2)N(=O)=O)C2=C1C=CC=C2)C([O-])=O,1-hydroxy-4-(2-nitrophenylazo)2-napthoic acid,11.69,Log unit,Oc1c(C(=O)[O-])cc(N=Nc2c(N(=O)=O)cccc2)c2ccccc12,,25,?C
OC1=C(C=C(N=NC2=CC(=CC=C2)N(=O)=O)C2=C1C=CC=C2)C([O-])=O,1-hydroxy-4-(3-nitrophenylazo)2-napthoic acid,10.84,Log unit,Oc1c(C(=O)[O-])cc(N=Nc2cc(N(=O)=O)ccc2)c2ccccc12,,25,?C
OC1=C(C=C(N=NC2=CC=C(Cl)C=C2)C2=C1C=CC=C2)C([O-])=O,1-hydroxy-4-(4-chlorophenylazo)2-napthoic acid,11.25,Log unit,Oc1c(C(=O)[O-])cc(N=Nc2ccc(Cl)cc2)c2ccccc12,,25,?C
OC1=C(C=C(N=NC2=CC=C(I)C=C2)C2=C1C=CC=C2)C([O-])=O,1-hydroxy-4-(4-iodophenylazo)2-napthoic acid,11.28,Log unit,Oc1c(C(=O)[O-])cc(N=Nc2ccc(I)cc2)c2ccccc12,,25,?C
OC1=C(C=C(N=NC2=CC=CC=C2)C2=C1C=CC=C2)C([O-])=O,1-hydroxy-4-phenylazo-2-napthoic acid,11.4,Log unit,Oc1c(C(=O)[O-])cc(N=Nc2ccccc2)c2ccccc12,,25,?C
CC1=C(C=CC=C1)N=NC1=CC(C([O-])=O)=C(O)C2=C1C=CC=C2,1-hydroxy-5-(2-methylphenylazo)2-napthoic acid,11.55,Log unit,Oc1c(C(=O)[O-])cc(N=Nc2c(C)cccc2)c2ccccc12,,25,?C
CC1=CC=CC(=C1)N=NC1=CC(C([O-])=O)=C(O)C2=C1C=CC=C2,1-hydroxy-5-(3-methylphenylazo)2-napthoic acid,11.43,Log unit,Oc1c(C(=O)[O-])cc(N=Nc2cc(C)ccc2)c2ccccc12,,25,?C
CC1=CC=C(C=C1)N=NC1=CC(C([O-])=O)=C(O)C2=C1C=CC=C2,1-hydroxy-5-(4-methylphenylazo)2-napthoic acid,11.49,Log unit,Oc1c(C(=O)[O-])cc(N=Nc2ccc(C)cc2)c2ccccc12,,25,?C
COC1=CC=C(C=C1)N=NC1=CC(C([O-])=O)=C(O)C2=C1C=CC=C2,1-hydroxy-5-(4-methoxyphenylazo)2-napthoic acid,11.61,Log unit,Oc1c(C(=O)[O-])cc(N=Nc2ccc(OC)cc2)c2ccccc12,,25,?C
OC1=CC(=O)OC1Br,alpha-bromotetronic acid,2.23,Log unit,OC1=CC(=O)OC1Br,,25,?C
OC1=CC(=O)OC1I,alpha-iodotetronic acid,2.31,Log unit,OC1=CC(=O)OC1I,,25,?C
OC1=CC(=O)OC1N(=O)=O,alpha-nitrotetronic acid,1.68,Log unit,OC1=CC(=O)OC1N(=O)=O,,25,?C
CC(C)C1=CC=CC(=O)C(O)=C1,hinokiol,7.21,Log unit,Oc1c(=O)cccc(c1)C(C)C,,25,?C
CC(C)C1=CC=C(Br)C(=O)C(O)=C1Br,"3,7-dibromohinokiol",4.44,Log unit,Oc1c(=O)c(Br)ccc(C(C)C)c1Br,,25,?C
OC1=C(C(=O)C([O-])=C(C1=O)N(=O)=O)N(=O)=O,"2,5-dihydroxy-3,6-dinitrobenzoquinone",-0.8,Log unit,OC1=C(C(=O)C(=C(C1=O)N(=O)=O)[O-])N(=O)=O,,25,?C
OC1=CC(=O)OC1Cl,alpha-chlorotetronic acid,2.13,Log unit,OC1=CC(=O)OC1Cl,,25,?C
OC1=CC=C2C(=O)CCC2=C1,5-hydroxy-indanon,7.53,Log unit,Oc1cc2CCC(=O)c2cc1,,25,?C
OC1=C2C(=O)CCC2=CC=C1,7-hydroxy-indanon,8.43,Log unit,Oc1cccc2CCC(=O)c12,,25,?C
OC1=C2C(=O)CCC2=C(C=C1)N(=O)=O,4-nitro-7-hydroxy-indanon,5.27,Log unit,Oc1ccc(c2CCC(=O)c12)N(=O)=O,,25,?C
OC1=C2C(=O)CCC2=CC=C1N(=O)=O,6-nitro-7-hydroxy-indanon,5.31,Log unit,Oc1c(ccc2CCC(=O)c12)N(=O)=O,,25,?C
OC1=C2C(=O)CCC2=C(C=C1N(=O)=O)N(=O)=O,"4,6-di-nitro-7-hydroxy-indanon",1.94,Log unit,Oc1c(cc(c2CCC(=O)c12)N(=O)=O)N(=O)=O,,25,?C
OC1=CC=C([O-])C2=C1C(=O)C1=CC=CC=C1C2=O,"1,4-Dihydroxyanthraquinone",10.9,Log unit,Oc1ccc([O-])c2C(=O)c3ccccc3C(=O)c12,,25,?C
OC1=CC=C2C(=O)C3=C(C=CC([O-])=C3)C(=O)C2=C1,"2,6-Dihydroxyanthraquinone",7.9,Log unit,Oc1cc2C(=O)c3ccc(cc3C(=O)c2cc1)[O-],,25,?C
OC1=C(Br)C=C(Br)C=C(Br)C1=O,"3,5,7-tribromo-2-hydroxy-2,4,6-cycloheptatrien-1-one",4.27,Log unit,Oc1c(cc(Br)cc(Br)c1=O)Br,,25,?C
OC1=CC(Br)=CC=CC1=O,"4-bromo-2-hydroxy-2,4,6-Cycloheptatrien-1-one",5.7,Log unit,Oc1c(=O)cccc(c1)Br,,25,?C
OC1=CC=C(Br)C=CC1=O,"5-bromo-2-hydroxy-2,4,6-Cycloheptatrien-1-one",6.32,Log unit,Oc1c(=O)ccc(cc1)Br,,25,?C
CC1=CC(Br)=C(O)C(=O)C=C1,"5-methyl-3-bromo-2-hydroxy-2,4,6-Cycloheptatrien-1-one",6.41,Log unit,Oc1c(=O)ccc(cc1Br)C,,25,?C
CC1=CC(=O)C(O)=C(Br)C=C1,"6-methyl-3-bromo-2-hydroxy-2,4,6-Cycloheptatrien-1-one",6.3,Log unit,Oc1c(=O)cc(ccc1Br)C,,25,?C
CC1=CC(=O)C(O)=CC=C1Br,"3-methyl-4-bromo-7-hydroxy-2,4,6-Cycloheptatrien-1-one",6.6,Log unit,Oc1ccc(c(cc1=O)C)Br,,25,?C
CC1=C(Br)C(=O)C(O)=C(Br)C=C1,"3-methyl-2,6-dibromo-7-hydroxy-2,4,6-Cycloheptatrien-1-one",5.59,Log unit,Oc1c(ccc(c(c1=O)Br)C)Br,,25,?C
CC1=CC(Br)=C(O)C(=O)C(Br)=C1,"4-methyl-2,6-dibromo-7-hydroxy-2,4,6-Cycloheptatrien-1-one",5.59,Log unit,Oc1c(cc(cc(c1=O)Br)C)Br,,25,?C
OC1=C(Br)C=C(Br)C=CC1=O,"3,5-dibromo-2-hydroxy-2,4,6-Cycloheptatrien-1-one",5.18,Log unit,Oc1c(=O)ccc(cc1Br)Br,,25,?C
OC1=C(Br)C=CC=C(Br)C1=O,"3,7-dibromo-2-hydroxy-2,4,6-Cycloheptatrien-1-one",4.68,Log unit,Oc1c(=O)c(cccc1Br)Br,,25,?C
OC1=C(Br)C=CC=C(Br)C1=O,"3,5,7-tribromo-2-hydroxy-2,4,6-cycloheptatrien-1-one",4.27,Log unit,Oc1c(=O)c(cccc1Br)Br,,25,?C
CC1=C(Br)C(=O)C(O)=C(Br)C=C1,"6-methyl-3,5,7-tribromo-2-hydroxy-2,4,6-Cycloheptatrien-1-one",5.17,Log unit,Oc1c(=O)c(c(ccc1Br)C)Br,,25,?C
COC1=C(O)C(=O)C=CC=C1,"3-methoxy-2-hydroxy-2,4,6-Cycloheptatrien-1-one",8,Log unit,Oc1c(=O)ccccc1OC,,25,?C
COC1=CC=C(O)C(=O)C=C1,"5-methoxy-2-hydroxy-2,4,6-Cycloheptatrien-1-one",7.75,Log unit,Oc1c(=O)ccc(cc1)OC,,25,?C
CC1=C(O)C(=O)C=CC=C1,"3-methyl-2-hydroxy-2,4,6-Cycloheptatrien-1-one",7.92,Log unit,Oc1c(=O)ccccc1C,,25,?C
CC1=CC=CC(=O)C(O)=C1,"4-methyl-2-hydroxy-2,4,6-Cycloheptatrien-1-one",7.26,Log unit,Oc1c(=O)cccc(c1)C,,25,?C
CC1=CC=C(O)C(=O)C=C1,"5-methyl-2-hydroxy-2,4,6-Cycloheptatrien-1-one",7.32,Log unit,Oc1c(=O)ccc(cc1)C,,25,?C
COC1=C(C)C=C(O)C=C1,4-methoxy-3-methyl-phenol,10.31,Log unit,Oc1ccc(c(C)c1)OC,,25,?C
COC1=CC(C=O)=CC=C1O,Vanillin,7.396,Log unit,Oc1ccc(C=O)cc1OC,,25,?C
COC1=C(O)C(C=O)=CC=C1,o-Vanillin,7.912,Log unit,Oc1c(cccc1C=O)OC,,25,?C
COC1=CC=C(C=O)C=C1O,Isovanillin,8.889,Log unit,Oc1cc(ccc1OC)C=O,,25,?C
CC(=O)C1=CC=CC(O)=C1,m-Hydroxyacetophenone,9.19,Log unit,Oc1cccc(c1)C(=O)C,,25,?C
COC1=CC(OC)=CC(O)=C1,"3,5-dimethoxy-phenol",9.34,Log unit,Oc1cc(cc(c1)OC)OC,,25,?C
CC1=CC(O)=C(Cl)C(C)=C1Cl,"2,4-dichloro-3,5-dimethyl-phenol",8.28,Log unit,Oc1c(Cl)c(c(c(c1)C)Cl)C,,25,?C
CC1=C(O)C(Cl)=C(C)C(Cl)=C1,"2,4-dichloro-3,6-dimethyl-phenol",8.37,Log unit,Oc1c(cc(Cl)c(c1Cl)C)C,,25,?C
CC1=C(Cl)C=C(Cl)C(O)=C1C,"2,4-dichloro-5,6-dimethyl-phenol",8.45,Log unit,Oc1c(Cl)cc(Cl)c(C)c1C,,25,?C
CC1=C(C)C(Cl)=C(O)C(Cl)=C1,"2,6-dichloro-3,4-dimethyl-phenol",7.59,Log unit,Oc1c(Cl)cc(c(C)c1Cl)C,,25,?C
CC1=C(C)C=C(Cl)C(O)=C1,"2-chloro-4,5-dimethyl-phenol",8.89,Log unit,Oc1c(Cl)cc(c(C)c1)C,,25,?C
CC1=C(C)C(Cl)=CC=C1O,"4-chloro-2,3-dimethyl-phenol",9.91,Log unit,Oc1ccc(Cl)c(c1C)C,,25,?C
CC1=CC(O)=C(C)C=C1Cl,"4-chloro-2,5-dimethyl-phenol",9.89,Log unit,Oc1c(cc(Cl)c(c1)C)C,,25,?C
CC1=CC(O)=CC(C)=C1Cl,"4-chloro-3,5-dimethyl-phenol",9.702,Log unit,Oc1cc(c(Cl)c(c1)C)C,,25,?C
CC1=CC(Br)=CC(C)=C1O,"4-bromo-2,6-dimethyl-phenol",9.81,Log unit,Oc1c(cc(Br)cc1C)C,,25,?C
CC1=CC(F)=CC(C)=C1O,"4-fluoro-2,6-dimethyl-phenol",10.46,Log unit,Oc1c(cc(F)cc1C)C,,25,?C
OC(C1=CC(Br)=CC=C1)C(F)(F)F,"1-(3-bromophenyl)-2,2,2-trifluoro-ethanol",11.5,Log unit,OC(c1cc(Br)ccc1)C(F)(F)F,,25,?C
OC(C1=CC=CC(=C1)N(=O)=O)C(F)(F)F,"2,2,2-trifluoro-1-(3-nitrophenyl)-ethanol",11.23,Log unit,OC(c1cccc(c1)N(=O)=O)C(F)(F)F,,25,?C
COC(=O)C1=CC(=C(O)C=C1)N(=O)=O,4-hydroxy-3-methoxybenzoate-methyl,5.4,Log unit,Oc1c(cc(C(=O)OC)cc1)N(=O)=O,,25,?C
CC(C)C1=CC=CC=C1O,2-isopropyl-phenol,10.325,Log unit,Oc1ccccc1C(C)C,,25,?C
CC(C)C1=CC=CC(O)=C1,3-isopropyl-phenol,10.16,Log unit,Oc1cccc(c1)C(C)C,,25,?C
CC(C)C1=CC=C(O)C=C1,4-Isopropyl-phenol,10.25,Log unit,Oc1ccc(C(C)C)cc1,,25,?C
CCCC1=CC=CC=C1O,2-propyl-phenol,10.525,Log unit,Oc1ccccc1CCC,,25,?C
CC1=CC(C)=C(C)C(O)=C1,"2,3,5-trimethyl-phenol",10.69,Log unit,Oc1cc(cc(c1C)C)C,,25,?C
CC1=CC(C)=C(C)C=C1O,"2,4,5-trimethyl-phenol",10.57,Log unit,Oc1cc(c(C)cc1C)C,,25,?C
COC1=CC(C)=C(O)C(C)=C1,"4-methoxy-2,6-dimethyl-phenol",10.84,Log unit,Oc1c(cc(OC)cc1C)C,,25,?C
CC1=CC(=C(O)C(=C1)N(=O)=O)N(=O)=O,"4-methyl-2,6-dinitro-phenol",4.231,Log unit,Oc1c(cc(C)cc1N(=O)=O)N(=O)=O,,25,?C
OC1=CC(C=O)=CC=C1,3-HYDROXY-BENZALDEHYDE,8.985,Log unit,Oc1cccc(c1)C=O,,25,?C
OC1=CC=C(C=O)C=C1,4-HYDROXY-BENZALDEHYDE,7.61,Log unit,Oc1ccc(cc1)C=O,,25,?C
CC1=CC(O)=C(C=C1)N(=O)=O,5-methyl-2-nitro-phenol,7.4,Log unit,Oc1c(N(=O)=O)ccc(C)c1,,25,?C
OC(C1=CC=CC=C1)C(F)(F)F,"2,2,2-trifluoro-1-phenyl-ethanol",11.9,Log unit,OC(c1ccccc1)C(F)(F)F,,25,?C
COC(=O)C1=CC(O)=C(C=C1)N(=O)=O,3-hydroxy-4-nitrobenzoate-methyl,6.15,Log unit,Oc1cc(C(=O)OC)ccc1N(=O)=O,,25,?C
CC(=O)NC1=CC(O)=C(C=C1)N(=O)=O,N-(3-hydroxy-4-nitrophenyl)acetamid,6.71,Log unit,Oc1cc(NC(=O)C)ccc1N(=O)=O,,25,?C
CC(=O)NC1=CC(=C(O)C=C1)N(=O)=O,N-(4-hydroxy-3-nitrophenyl)acetamid,6.78,Log unit,Oc1c(cc(NC(=O)C)cc1)N(=O)=O,,25,?C
CC(=O)NC1=CC(O)=CC=C1,N-(4-hydroxyphenyl)acetamid,9.6,Log unit,Oc1cc(NC(=O)C)ccc1,,25,?C
CN(C(C)=O)C1=C(O)C=CC=C1,N-(2-hydroxyphenyl)-N-methylacetamid,8.9,Log unit,Oc1c(N(C)C(=O)C)cccc1,,25,?C
CN(C(C)=O)C1=C(S)C=CC=C1,N-(2-mercaptoyphenyl)-N-methylacetamid,5.6,Log unit,Sc1c(N(C)C(=O)C)cccc1,,25,?C
CC1=CC(=CC(C)=C1O)N=O,"2,6-dimethyl-4-nitroso-phenol",7.56,Log unit,Oc1c(C)cc(N=O)cc1C,,25,?C
CC1=CC(O)=CC(C)=C1N=O,"3,5-dimethyl-4-nitroso-phenol",8.04,Log unit,Oc1cc(C)c(N=O)c(C)c1,,25,?C
OC1=CC=CC=C1CC=C,2-allyl-phenol,10.29,Log unit,Oc1ccccc1CC=C,,25,?C
OC1=CC=C(CC=C)C=C1,4-allyl-phenol,10.23,Log unit,Oc1ccc(CC=C)cc1,,25,?C
CC=CC1=CC=C(O)C=C1,4-(1-propenyl)-phenol,9.809999,Log unit,Oc1ccc(C=CC)cc1,,25,?C
CCOC(=O)C1=C(O)C=CC=C1,2-hydroxybenzoate-ethyl,9.92,Log unit,Oc1c(C(=O)OCC)cccc1,,25,?C
CCOC(=O)C1=CC(O)=CC=C1,3-hydroxybenzoate-ethyl,9.1,Log unit,Oc1cc(C(=O)OCC)ccc1,,25,?C
CCOC(=O)C1=CC=C(O)C=C1,4-hydroxybenzoate-ethyl,8.5,Log unit,Oc1ccc(C(=O)OCC)cc1,,25,?C
CCOC(=O)C1=CC(O)=C([O-])C=C1,"3,4-dihydroxybenzoate-methyl",11.65,Log unit,Oc1cc(C(=O)OCC)ccc1[O-],,25,?C
COC(=O)C1=C(O)C(OC)=CC=C1,2-hydroxy-3-methoxybenzoate-methyl,10.3,Log unit,Oc1c(C(=O)OC)cccc1OC,,25,?C
COC(=O)C1=C(O)C=C(OC)C=C1,2-hydroxy-4-methoxybenzoate-methyl,9.85,Log unit,Oc1c(C(=O)OC)ccc(c1)OC,,25,?C
COC(=O)C1=CC(O)=C(OC)C=C1,3-hydroxy-4-methoxybenzoate-methyl,9.21,Log unit,Oc1cc(C(=O)OC)ccc1OC,,25,?C
COC(=O)C1=CC(OC)=C(O)C=C1,4-hydroxy-3-methoxybenzoate-methyl,8.3,Log unit,Oc1c(cc(C(=O)OC)cc1)OC,,25,?C
COC1=CC=C(C=C1)C(O)C(F)(F)F,"2,2,2-trifluoro-1-(4-methoxyphenyl)-ethanol",12.24,Log unit,OC(c1ccc(cc1)OC)C(F)(F)F,,25,?C
CCOC(=O)C1=CC(O)=C(C=C1)N(=O)=O,3-hydroxy-4-nitrobenzoate-ethyl,6.11,Log unit,Oc1cc(C(=O)OCC)ccc1N(=O)=O,,25,?C
CCOC(=O)C1=CC(=C(O)C=C1)N(=O)=O,4-hydroxy-3-nitrobenzoate-ethyl,5.44,Log unit,Oc1c(cc(C(=O)OCC)cc1)N(=O)=O,,25,?C
CCC1=C(C(O)=C(C(C)=C1N(=O)=O)N(=O)=O)N(=O)=O,"3-ethyl-5-methyl-2,4,6-trinitro-phenol",3.3,Log unit,Oc1c(c(c(N(=O)=O)c(c1N(=O)=O)CC)C)N(=O)=O,,25,?C
COC1=C(O)C(CC=C)=CC=C1,2-allyl-6-methoxy-phenol,10.38,Log unit,Oc1c(cccc1CC=C)OC,,25,?C
COC1=C(O)C=CC=C1CC=C,3-allyl-2-methoxy-phenol,9.92,Log unit,Oc1cccc(c1OC)CC=C,,25,?C
COC1=CC(C=CC)=CC=C1O,2-methoxy-4-(1-propenyl)-phenol,9.885,Log unit,Oc1ccc(C=CC)cc1OC,,25,?C
COC1=C(O)C(C=CC)=CC=C1,2-methoxy-6-(1-propenyl)-phenol,10.2,Log unit,Oc1c(cccc1C=CC)OC,,25,?C
CCCCC1=CC=CC=C1O,2-butyl-phenol,10.58,Log unit,Oc1ccccc1CCCC,,25,?C
CC(C)(C)C1=CC=CC=C1O,2-tert-Butyl-phenol,11.245,Log unit,Oc1ccccc1C(C)(C)C,,25,?C
CC(C)(C)C1=CC=CC(O)=C1,3-tert-butyl-phenol,10.0995,Log unit,Oc1cccc(C(C)(C)C)c1,,25,?C
CC(C)(C)C1=CC=C(O)C=C1,4-tert-butyl-phenol,10.31,Log unit,Oc1ccc(C(C)(C)C)cc1,,25,?C
CC(C)C1=C(O)C=CC=C1C,2-isopropyl-3-methyl-phenol,11.23,Log unit,Oc1cccc(c1C(C)C)C,,25,?C
CC(C)C1=C(O)C=CC(C)=C1,2-isopropyl-4-methyl-phenol,10.73,Log unit,Oc1ccc(cc1C(C)C)C,,25,?C
CC(C)C1=C(O)C=C(C)C=C1,2-isopropyl-5-methyl-phenol,10.62,Log unit,Oc1c(ccc(c1)C)C(C)C,,25,?C
CC(C)C1=CC=CC(C)=C1O,2-isopropyl-6-methyl-phenol,10.85,Log unit,Oc1c(cccc1C(C)C)C,,25,?C
CC(C)C1=CC=C(O)C(C)=C1,4-isopropyl-2-methyl-phenol,10.56,Log unit,Oc1ccc(C(C)C)cc1C,,25,?C
CC(C)C1=CC=C(O)C=C1C,4-isopropyl-3-methyl-phenol,10.31,Log unit,Oc1ccc(C(C)C)c(c1)C,,25,?C
CCOC1=CC(OCC)=CC(O)=C1,"3,5-diethoxy-phenol",9.37,Log unit,Oc1cc(cc(c1)OCC)OCC,,25,?C
OC1=C2C=CC=CC2=CC(Cl)=C1,3-chloro-1-naphthol,8.4,Log unit,Oc1cc(Cl)cc2c1cccc2,,25,?C
OC1=CC=C(Cl)C2=C1C=CC=C2,4-CHLORO-1-NAPHTHOL,8.86,Log unit,Oc1ccc(Cl)c2ccccc12,,25,?C
OC1=C2C=CC=CC2=CC(Br)=C1,3-bromo-1-naphthol,8.34,Log unit,Oc1cc(Br)cc2c1cccc2,,25,?C
OC1=CC=C(Br)C2=C1C=CC=C2,4-bromo-1-naphthol,8.72,Log unit,Oc1ccc(Br)c2ccccc12,,25,?C
OC1=C2C=CC=CC2=CC(I)=C1,3-iodo-1-naphthol,8.36,Log unit,Oc1cc(I)cc2c1cccc2,,25,?C
OC1=C(C=CC2=C1C=CC=C2)N=O,2-nitroso-1-napthol,7.3,Log unit,Oc1c(N=O)ccc2ccccc12,,25,?C
OC1=C(N=O)C2=C(C=CC=C2)C=C1,2-nitroso-1-napthol,7.6,Log unit,Oc1c(N=O)c2ccccc2cc1,,25,?C
OC1=C(C=CC2=CC=CC=C12)N(=O)=O,2-nitro-1-napthol,5.89,Log unit,Oc1c2ccccc2ccc1N(=O)=O,,25,?C
OC1=CC(=CC2=CC=CC=C12)N(=O)=O,3-nitro-1-naphthol,7.855,Log unit,Oc1c2ccccc2cc(c1)N(=O)=O,,25,?C
OC1=CC=C(C2=CC=CC=C12)N(=O)=O,4-Nitro-1-naphthol,5.73,Log unit,Oc1c2ccccc2c(cc1)N(=O)=O,,25,?C
OC1=C(C2=CC=CC=C2C=C1)N(=O)=O,1-Nitro-2-naphthol,5.93,Log unit,Oc1c(c2ccccc2cc1)N(=O)=O,,25,?C
CC(C)(C)C1=C(C(O)=C(C=C1N(=O)=O)N(=O)=O)N(=O)=O,"3-tert-butyl-2,4,6-trinitro-phenol",1.59,Log unit,Oc1c(cc(N(=O)=O)c(c1N(=O)=O)C(C)(C)C)N(=O)=O,,25,?C
CC(C)(C)C1=CC=C(O)C(Cl)=C1,4-TERT-BUTYL-2-CHLORO-PHENOL,8.58,Log unit,Oc1c(Cl)cc(cc1)C(C)(C)C,,25,?C
CC(C)C1=C(O)C=C(C)C(Cl)=C1,4-chloro-5-methyl-2-isopropyl-phenol,9.98,Log unit,Oc1c(cc(Cl)c(c1)C)C(C)C,,25,?C
CCC1=CC(=CC(CC)=C1O)N(=O)=O,"2,6-diethyl-4-nitro-phenol",7.73,Log unit,Oc1c(cc(N(=O)=O)cc1CC)CC,,25,?C
CC1=CC=C(O)C2=CC=CC=C12,4-Methyl-1-naphthol,9.64,Log unit,Oc1c2ccccc2c(cc1)C,,25,?C
CCCCC1=CC=C(O)C(C)=C1,4-butyl-2-methyl-phenol,10.69,Log unit,Oc1ccc(CCCC)cc1C,,25,?C
CC1=CC(=C(O)C=C1)C(C)(C)C,2-tert-Butyl-4-methyl-phenol,11.72,Log unit,Oc1ccc(cc1C(C)(C)C)C,,25,?C
CC1=C(O)C(=CC=C1)C(C)(C)C,2-tert-Butyl-6-methyl-phenol,10.96,Log unit,Oc1c(cccc1C(C)(C)C)C,,25,?C
CC1=CC(=CC=C1O)C(C)(C)C,4-tert-butyl-2-methyl-phenol,10.59,Log unit,Oc1ccc(C(C)(C)C)cc1C,,25,?C
CC(C)C1=C(C)C=C(C)C(O)=C1,"5-isopropyl-2,4-dimethyl-phenol",10.76,Log unit,Oc1cc(c(C)cc1C)C(C)C,,25,?C
CC(C)C1=CC(C)=CC(C)=C1O,"2-isopropyl-4,6-dimethyl-phenol",11.18,Log unit,Oc1c(cc(C)cc1C(C)C)C,,25,?C
CC(C)C1=CC(C)=C(O)C(C)=C1,"4-isopropyl-2,6-dimethyl-phenol",10.9,Log unit,Oc1c(cc(C(C)C)cc1C)C,,25,?C
CC(C)C1=CC(C)=C(C)C=C1O,"2-isopropyl-4,5-dimethyl-phenol",10.79,Log unit,Oc1cc(c(C)cc1C(C)C)C,,25,?C
CCC1=CC(=CC=C1O)C(C)C,2-ethyl-4-isopropyl-phenol,10.77,Log unit,Oc1ccc(C(C)C)cc1CC,,25,?C
CCC1=CC=C(C=C1O)C(C)C,2-ethyl-5-isopropyl-phenol,10.61,Log unit,Oc1cc(ccc1CC)C(C)C,,25,?C
CCC1=CC=C(O)C(=C1)C(C)C,4-ethyl-2-isopropyl-phenol,10.82,Log unit,Oc1ccc(CC)cc1C(C)C,,25,?C
OC1=CC2=C(C=CC=C2)C(=C1)C#N,3-hydroxy-1-napthalenecarbonitrile,8.41,Log unit,Oc1cc(C#N)c2ccccc2c1,,25,?C
OC1=CC=C(C#N)C2=C1C=CC=C2,4-hydroxy-1-napthalenecarbonitrile,7.08,Log unit,Oc1ccc(C#N)c2ccccc12,,25,?C
COC(=O)C1=CC(O)=CC2=C1C=CC=C2,3-hydroxy-1-napthocarboxlate-methyl,8.88,Log unit,Oc1cc(C(=O)OC)c2ccccc2c1,,25,?C
COC(=O)C1=CC2=C(C=CC=C2)C(O)=C1,4-hydroxy-2-napthocarboxlate-methyl,8.75,Log unit,Oc1cc(cc2ccccc12)C(=O)OC,,25,?C
CC1=CC(C)=C(O)C=C1,"2,4-Dimethyl-phenol",10.5975,Log unit,Oc1ccc(cc1C)C,,25,?C
CC1=CC(O)=C(C)C=C1,"2,5-Dimethyl-phenol",10.407,Log unit,Oc1c(ccc(c1)C)C,,25,?C
CC1=CC=CC(C)=C1O,"2,6-Dimethyl-phenol",10.63,Log unit,Oc1c(cccc1C)C,,25,?C
CC1=CC(C)=C(O)C(C)=C1,"2,3,6-trimethyl-phenol",10.875,Log unit,Oc1c(cc(C)cc1C)C,,25,?C
CCC1=CC=CC=C1O,2-Ethyl-phenol,10.235,Log unit,Oc1ccccc1CC,,25,?C
OC1=CC=CC=C1C1=CC=CC=C1,Biphenyl-2-ol,9.97,Log unit,Oc1c(c2ccccc2)cccc1,,25,?C
OC1=CC=CC2=CC=CC=C12,1-naphthol,9.395,Log unit,Oc1c2ccccc2ccc1,,25,?C
OC1=CC=CC=C1F,2-fluoro-phenol,8.715,Log unit,Oc1c(F)cccc1,,25,?C
OC1=CC=CC=C1Cl,2-chloro-phenol,8.541,Log unit,Oc1c(Cl)cccc1,,25,?C
OC1=CC=C(Cl)C=C1Cl,"2,4-dichloro-phenol",7.795,Log unit,Oc1ccc(Cl)cc1Cl,,25,?C
OC1=CC=CC=C1Br,2-bromo-phenol,8.445999,Log unit,Oc1c(Br)cccc1,,25,?C
OC1=CC=CC=C1I,2-iodo-phenol,8.511499,Log unit,Oc1c(I)cccc1,,25,?C
OC1=CC=CC=C1N(=O)=O,2-nitro-phenol,7.225,Log unit,Oc1ccccc1N(=O)=O,,25,?C
CC1=CC(=CC(C)=C1O)N(=O)=O,"2,6-dimethyl-4-nitro-phenol",7.07,Log unit,Oc1c(cc(N(=O)=O)cc1C)C,,25,?C