Smiles,Name,pKa,pKa Unit,Ionizable center smiles,IC group,Temperature,Temperature Unit
OC(=O)C1=CC(=CC(=C1O)[N+]([O-])=O)[N+]([O-])=O,"2-HYDROXY-3,5-DINITRO-BENZOIC ACID",0.7,Log unit,OC(=O)c1c(c([N+](=O)[O-])cc(c1)[N+](=O)[O-])O,benzoic acid (ortho subs.),25,?C
OC(=O)C1=C(C=C(C=C1)[N+]([O-])=O)[N+]([O-])=O,"2,4-DINITROBENZOIC ACID",1.42,Log unit,OC(=O)c1c([N+](=O)[O-])cc(cc1)[N+](=O)[O-],benzoic acid (ortho subs.),25,?C
CC1=CC=CC(C)=C1C(O)=O,"2,6-DIMETHYLBENZOIC ACID",3.345,Log unit,OC(=O)c1c(cccc1C)C,benzoic acid (ortho subs.),25,?C
CC1=C(F)C(F)=C(C(O)=O)C(F)=C1F,"2,3,5,6-TETRAFLUORO-4-METHYL-BENZOIC ACID",2,Log unit,OC(=O)c1c(c(F)c(c(c1F)F)C)F,benzoic acid (ortho subs.),25,?C
OC(=O)C1=C(C=CC=C1)C1=CC=CC=C1,"[1,1'-BIPHENYL]-2-CARBOXYLIC ACID",3.46,Log unit,OC(=O)c1c(cccc1)c1ccccc1,benzoic acid (ortho subs.),,-
COC1=CC=CC(OC)=C1C(O)=O,"2,6-DIMETHOXYBENZOIC ACID",3.44,Log unit,OC(=O)c1c(OC)cccc1OC,benzoic acid (ortho subs.),25,?C
COC1=C(OC)C(=CC=C1)C(O)=O,"2,3-DIMETHOXYBENZOIC ACID",3.98,Log unit,OC(=O)c1c(OC)c(ccc1)OC,benzoic acid (ortho subs.),25,?C
COC1=C(Cl)C=CC(Cl)=C1C(O)=O,dicamba,1.97,Log unit,OC(=O)c1c(c(Cl)ccc1Cl)OC,benzoic acid (ortho subs.),,-
OC(=O)C1=C(OC2=CC=CC=C2)C=CC=C1,o-Phenoxybenzoic acid,3.53,Log unit,OC(=O)c1c(Oc2ccccc2)cccc1,benzoic acid (ortho subs.),,-
CC(C)C1=C(C=CC=C1)C(O)=O,O-ISOPROPYLBENZOIC ACID,3.63,Log unit,OC(=O)c1c(cccc1)C(C)C,benzoic acid (ortho subs.),25,?C
OC(=O)C1=C(Cl)C=CC(=C1)[N+]([O-])=O,2-CHLORO-5-NITROBENZOIC ACID,2.17,Log unit,OC(=O)c1cc([N+](=O)[O-])ccc1Cl,benzoic acid (ortho subs.),25,?C
OC(=O)C1=CC=CC(=C1Cl)[N+]([O-])=O,2-CHLORO-3-NITROBENZOIC ACID,2.02,Log unit,OC(=O)c1c(c([N+](=O)[O-])ccc1)Cl,benzoic acid (ortho subs.),25,?C
OC(=O)C1=C(C=CC=C1)C(=O)NC1=CC=CC=C1,N-Phenylphthalamic acid,2.5,Log unit,OC(=O)c1c(C(=O)Nc2ccccc2)cccc1,benzoic acid (ortho subs.),,-
OC(=O)C1=C(C=CC=C1Cl)[N+]([O-])=O,2-CHLORO-6-NITRO-BENZOIC ACID,1.34,Log unit,OC(=O)c1c([N+](=O)[O-])cccc1Cl,benzoic acid (ortho subs.),25,?C
CC1=CC=CC(Cl)=C1C(O)=O,2-CHLORO-6-METHYL-BENZOIC ACID,2.75,Log unit,OC(=O)c1c(Cl)cccc1C,benzoic acid (ortho subs.),20,?C
NC(=O)CNC1=C(C=CC=C1)C(O)=O,2-[(ACETYLAMINO)AMINO]-BENZOIC ACID,4.2,Log unit,OC(=O)c1c(NCC(=O)N)cccc1,benzoic acid (ortho subs.),,-
OC(=O)C1=CC(Cl)=C(Cl)C=C1,"3,4-DICHLOROBENZOIC ACID",3.64,Log unit,OC(=O)c1ccc(c(Cl)c1)Cl,benzoic acid (meta/para subs.),25,?C
OC(=O)C1=CC(Cl)=CC(Cl)=C1,"3,5-DICHLOROBENZOIC ACID",3.54,Log unit,OC(=O)c1cc(cc(Cl)c1)Cl,benzoic acid (meta/para subs.),22,?C
CCCN(CCC)S(=O)(=O)C1=CC=C(C=C1)C(O)=O,Probenecid,3.4,Log unit,OC(=O)c1ccc(S(=O)(=O)N(CCC)CCC)cc1,benzoic acid (meta/para subs.),,-
OC(=O)C1=CC=C(C=C1)[N+]([O-])=O,p-Nitrobenzoic acid,3.44,Log unit,OC(=O)c1ccc([N+](=O)[O-])cc1,benzoic acid (meta/para subs.),,-
OC(=O)C1=CC=CC=C1,Benzoic acid,4.19,Log unit,OC(=O)c1ccccc1,benzoic acid (meta/para subs.),25,?C
OC(=O)C1=CC=C(Cl)C=C1,4-Chlorobenzoic Acid,3.98,Log unit,OC(=O)c1ccc(Cl)cc1,benzoic acid (meta/para subs.),25,?C
OC(=O)C1=CC2=C(C=CC=C2)C=C1,2-NAPHTHOIC ACID,4.17,Log unit,OC(=O)c1cc2c(cc1)cccc2,benzoic acid (meta/para subs.),20,?C
COC1=C(OC)C=C(C=C1)C(O)=O,"3,4-DIMETHOXYBENZOIC ACID",4.36,Log unit,OC(=O)c1ccc(c(OC)c1)OC,benzoic acid (meta/para subs.),25,?C
CC(C)(C)C1=CC=C(C=C1)C(O)=O,4-(TERT-BUTYL)-BENZOIC ACID,4.4,Log unit,OC(=O)c1ccc(cc1)C(C)(C)C,benzoic acid (meta/para subs.),25,?C
OC(=O)C1=CC=C(O)C=C1,p-hydroxybenzoic acid,4.54,Log unit,OC(=O)c1ccc(O)cc1,benzoic acid (meta/para subs.),,-
CC1=CC=C(C=C1)C(O)=O,p-toluic acid,4.37,Log unit,OC(=O)c1ccc(cc1)C,benzoic acid (meta/para subs.),25,?C
OC(=O)C1=CC(O)=C(O)C=C1,"3,4-DIHYDROXYBENZOIC ACID",4.48,Log unit,OC(=O)c1ccc(c(O)c1)O,benzoic acid (meta/para subs.),25,?C
OC(=O)C1=CC(=CC(=C1)[N+]([O-])=O)[N+]([O-])=O,"3,5-DINITROBENZOIC ACID",2.82,Log unit,OC(=O)c1cc(cc([N+](=O)[O-])c1)[N+](=O)[O-],benzoic acid (meta/para subs.),25,?C
OC(=O)C1=CC(O)=CC(O)=C1,"3,5-DIHYDROXYBENZOIC ACID",4.04,Log unit,OC(=O)c1cc(cc(O)c1)O,benzoic acid (meta/para subs.),25,?C
NC1=CC(=CC=C1)C(O)=O,3-Aminobenzoic acid,4.74,Log unit,OC(=O)c1cc(N)ccc1,benzoic acid (meta/para subs.),25,?C
CC1=CC=CC(=C1)C(O)=O,m-toluic acid,4.27,Log unit,OC(=O)c1cc(ccc1)C,benzoic acid (meta/para subs.),25,?C
COC1=CC=C(C=C1)C(O)=O,p-Methoxybenzoic acid,4.47,Log unit,OC(=O)c1ccc(OC)cc1,benzoic acid (meta/para subs.),25,?C
OC(=O)C1=CC=CC(=C1)[N+]([O-])=O,m-Nitrobenzoic acid,3.46,Log unit,OC(=O)c1cc([N+](=O)[O-])ccc1,benzoic acid (meta/para subs.),25,?C
COC1=C(O)C=CC(=C1)C(O)=O,4-HYDROXY-3-METHOXYBENZOIC ACID,4.51,Log unit,OC(=O)c1ccc(c(OC)c1)O,benzoic acid (meta/para subs.),25,?C
OC(=O)C1=CC(O)=C(O)C(O)=C1,"3,4,5-Trihydroxybenzoic acid",4.21,Log unit,OC(=O)c1cc(c(O)c(c1)O)O,benzoic acid (meta/para subs.),20,?C
NC1=CC=C(C=C1)C(O)=O,4-Aminobenzoic acid,4.85,Log unit,OC(=O)c1ccc(N)cc1,benzoic acid (meta/para subs.),25,?C
OC(=O)C1=CC=CC(F)=C1,m-Fluorobenzoic acid,3.86,Log unit,OC(=O)c1cc(F)ccc1,benzoic acid (meta/para subs.),25,?C
OC(=O)C1=CC=C(F)C=C1,p-Fluorobenzoic acid,4.14,Log unit,OC(=O)c1ccc(F)cc1,benzoic acid (meta/para subs.),25,?C
OC(=O)C1=CC(=C(C=C1)[N+]([O-])=O)[N+]([O-])=O,"3,4-DINITROBENZOIC ACID",2.82,Log unit,OC(=O)c1ccc(c([N+](=O)[O-])c1)[N+](=O)[O-],benzoic acid (meta/para subs.),25,?C
COC1=CC(=CC(OC)=C1O)C(O)=O,"4-OH-3,5-DIMETHOXYBENZIOC ACID",4.34,Log unit,OC(=O)c1cc(c(c(OC)c1)O)OC,benzoic acid (meta/para subs.),25,?C
OC(=O)C1=CC=CC(Cl)=C1,m-chlorobenzoic acid,3.81,Log unit,OC(=O)c1cc(Cl)ccc1,benzoic acid (meta/para subs.),25,?C
CC(C)C1=CC=C(C=C1)C(O)=O,CUMIC ACID,4.35,Log unit,OC(=O)c1ccc(cc1)C(C)C,benzoic acid (meta/para subs.),25,?C
OC(=O)C1=CC=CC(Br)=C1,m-Bromobenzoic acid,3.81,Log unit,OC(=O)c1cc(Br)ccc1,benzoic acid (meta/para subs.),20,?C
CC(=O)C1=CC=C(C=C1)C(O)=O,P-ACETYLBENZOIC ACID,3.7,Log unit,OC(=O)c1ccc(cc1)C(=O)C,benzoic acid (meta/para subs.),25,?C
OC(=O)C1=CC=C(Br)C=C1,P-BROMOBENZOIC ACID,4,Log unit,OC(=O)c1ccc(Br)cc1,benzoic acid (meta/para subs.),20,?C
COC1=CC(=CC=C1)C(O)=O,m-Methoxybenzoic acid,4.09,Log unit,OC(=O)c1cc(OC)ccc1,benzoic acid (meta/para subs.),25,?C
OC(=O)C1=CC=CC(I)=C1,3-Iodobenzoic Acid,3.85,Log unit,OC(=O)c1cc(I)ccc1,benzoic acid (meta/para subs.),25,?C
CCOC1=CC=C(C=C1)C(O)=O,P-ETHOXYBENZOIC ACID,4.45,Log unit,OC(=O)c1ccc(OCC)cc1,benzoic acid (meta/para subs.),20,?C
OC(=O)C1=CC=C(C=O)C=C1,4-FORMYLBENZOIC ACID,3.77,Log unit,OC(=O)c1ccc(cc1)C=O,benzoic acid (meta/para subs.),25,?C
CC1=C(OCCCC(O)=O)C=CC(Cl)=C1,MCPB,6.2,Log unit,OC(=O)CCCOc1c(cc(Cl)cc1)C,aliph. carboxylic acid,25,?C
OC(=O)COC1=C(Cl)C=C(Cl)C=C1,"2,4-Dichlorophenoxyacetic acid",2.73,Log unit,OC(=O)COc1c(Cl)cc(cc1)Cl,aliph. carboxylic acid,,-
CC1=C(OCC(O)=O)C=CC(Cl)=C1,2-METHYL-4-CHLOROPHENOXYACETIC ACID,3.13,Log unit,OC(=O)COc1c(cc(Cl)cc1)C,aliph. carboxylic acid,25,?C
CCC[C@@H](C)C(O)=O,"PENTANOIC ACID, 2-METHYL-",4.79,Log unit,OC(=O)C(CCC)C,aliph. carboxylic acid,18,?C
OC(=O)C1CCCCC1,cyclohexanecarboxylic acid,4.9,Log unit,OC(=O)C1CCCCC1,aliph. carboxylic acid,,-
CCCC(CCC)C(O)=O,Valproic acid,4.6,Log unit,OC(=O)C(CCC)CCC,aliph. carboxylic acid,,-
OC(=O)CC1=CC(O)=C(O)C=C1,"3,4-DIHYDROXYPHENYLACETIC ACID",4.25,Log unit,OC(=O)Cc1ccc(c(O)c1)O,aliph. carboxylic acid,30,?C
OC(=O)CC1=CC=CC=C1,phenylacetic acid,4.31,Log unit,OC(=O)Cc1ccccc1,aliph. carboxylic acid,,-
OC(=O)CC1=CC=C(C=C1)[N+]([O-])=O,p-nitrophenylacetic acid,3.85,Log unit,OC(=O)Cc1ccc([N+](=O)[O-])cc1,aliph. carboxylic acid,25,?C
COC1=CC=C(CC(O)=O)C=C1,p-Methoxyphenylacetic acid,4.36,Log unit,OC(=O)Cc1ccc(OC)cc1,aliph. carboxylic acid,25,?C
OC(=O)CCCl,3-CHLOROPROPIONIC ACID,3.99,Log unit,OC(=O)CCCl,aliph. carboxylic acid,25,?C
CCCC(O)=O,butyric acid,4.82,Log unit,OC(=O)CCC,aliph. carboxylic acid,25,?C
CC[C@@H](C)C(O)=O,2-METHYL-BUTANOIC ACID,4.81,Log unit,OC(=O)C(CC)C,aliph. carboxylic acid,18,?C
OC(=O)C(C1=CC=CC=C1)C1=CC=CC=C1,diphenylacetic acid,3.94,Log unit,OC(=O)C(c1ccccc1)c1ccccc1,aliph. carboxylic acid,25,?C
C[C@H](OC1=C(Cl)C=C(Cl)C=C1)C(O)=O,"2-(2,4-DICHLOROPHENOXY)PROPANOIC ACID",3.1,Log unit,OC(=O)C(Oc1c(Cl)cc(cc1)Cl)C,aliph. carboxylic acid,,-
OC(=O)COC1=CC=C(Cl)C=C1,p-Chlorophenoxyacetic acid,3.1,Log unit,OC(=O)COc1ccc(Cl)cc1,aliph. carboxylic acid,25,?C
OC(=O)COC1=CC=CC=C1,phenoxyacetic acid,3.17,Log unit,OC(=O)COc1ccccc1,aliph. carboxylic acid,25,?C
CC(=O)CCC(O)=O,LEVULINIC ACID,4.64,Log unit,OC(=O)CCC(=O)C,aliph. carboxylic acid,18,?C
OC(=O)CC(O)=O,malonic acid,2.85,Log unit,OC(=O)CC(=O)O,aliph. carboxylic acid,25,?C
OC(=O)CCI,3-IODOPROPIONIC ACID,4.09,Log unit,OC(=O)CCI,aliph. carboxylic acid,18,?C
OC(=O)CF,FLUOROACETIC ACID,2.586,Log unit,OC(=O)CF,aliph. carboxylic acid,25,?C
C[C@@H](O)CC(O)=O,b-Hydroxybutyric Acid,4.41,Log unit,OC(=O)CC(O)C,aliph. carboxylic acid,22,?C
OC(=O)CCCC1=CC=C(C=C1)N(CCCl)CCCl,Chlorambucil,5.75,Log unit,OC(=O)CCCc1ccc(N(CCCl)CCCl)cc1,aliph. carboxylic acid,,-
COC1=C(O)C=CC(CC(O)=O)=C1,4-HYDROXY-3-METHOXY-BENZENEACETIC ACID,4.41,Log unit,OC(=O)Cc1ccc(c(OC)c1)O,aliph. carboxylic acid,25,?C
O[C@@H]1C[C@](O)(C[C@@H](OC(=O)\C=C\C2=CC(O)=C(O)C=C2)[C@@H]1O)C(O)=O,Chlorogenic Acid,2.66,Log unit,OC(=O)[C@@]1(CC(C(C(OC(=O)C=Cc2cc(c(cc2)O)O)C1)O)O)O,aliph. carboxylic acid,27,?C
OC(=O)CC1=CC=CC(F)=C1,m-Fluorophenylacetic acid,4.13,Log unit,OC(=O)Cc1cc(F)ccc1,aliph. carboxylic acid,25,?C
OC(=O)COC1=C(F)C=CC=C1,o-Fluorophenoxyacetic acid,3.08,Log unit,OC(=O)COc1c(F)cccc1,aliph. carboxylic acid,25,?C
OC(=O)CC#N,CYANOACETIC ACID,2.45,Log unit,OC(=O)CC#N,aliph. carboxylic acid,25,?C
OC(=O)COC1=CC(F)=CC=C1,m-Fluorophenoxyacetic acid,3.13,Log unit,OC(=O)COc1cc(F)ccc1,aliph. carboxylic acid,25,?C
OC(=O)COC1=CC=C(F)C=C1,p-Fluorophenoxyacetic acid,3.13,Log unit,OC(=O)COc1ccc(F)cc1,aliph. carboxylic acid,25,?C
OC(=O)CC1=CC=C(F)C=C1,p-Fluorophenylacetic acid,4.24,Log unit,OC(=O)Cc1ccc(F)cc1,aliph. carboxylic acid,25,?C
NC(=O)NCC(O)=O,N-(AMINOCARBONYL)GLYCINE,3.889,Log unit,OC(=O)CNC(=O)N,aliph. carboxylic acid,15,?C
OC(=O)C1(O)C2=C(C=CC=C2)C2=C1C=CC=C2,FLURENOL,1.09,Log unit,OC(=O)C1(O)c2c(cccc2)c2c1cccc2,aliph. carboxylic acid,,-
OC[C@H](O)C(O)=O,Glyceric Acid,3.55,Log unit,OC(=O)C(O)CO,aliph. carboxylic acid,25,?C
OC(=O)CCC1=CC=CC=C1,BETA-PHENYLPROPIONIC ACID,4.66,Log unit,OC(=O)CCc1ccccc1,aliph. carboxylic acid,18,?C
CC(C)CC(O)=O,ISOVALERIC ACID,4.77,Log unit,OC(=O)CC(C)C,aliph. carboxylic acid,20,?C
OCCC(O)=O,Hydracrylic Acid,4.51,Log unit,OC(=O)CCO,aliph. carboxylic acid,25,?C
C[C@@](O)(C(O)=O)C1=CC=CC=C1,ALPHA-HYDROXY-ALPHA-METHYL BENZENEACETIC ACID,3.53,Log unit,OC(=O)[C@@](O)(C)c1ccccc1,aliph. carboxylic acid,18,?C
CC(C(O)=O)C(O)=O,METHYL MALONIC ACID,3.12,Log unit,OC(=O)C(C)C(=O)O,aliph. carboxylic acid,20,?C
OC(=O)CCCCC[C@@H]1NC(=O)CS1,Mycobacidin,5.1,Log unit,OC(=O)CCCCCC1SCC(=O)N1,aliph. carboxylic acid,,-
OC(=O)CC1=CC2=C(C=CC=C2)C=C1,2-NAPHTHALENEACETIC ACID,4.25,Log unit,OC(=O)Cc1cc2c(cc1)cccc2,aliph. carboxylic acid,25,?C
OC(=O)COC1=CC=CC(Cl)=C1,m-Chlorophenoxyacetic acid,3.07,Log unit,OC(=O)COc1cc(Cl)ccc1,aliph. carboxylic acid,25,?C
OC(=O)COC1=CC(Cl)=C(Cl)C=C1,"3,4-Dichlorophenoxyacetic acid",2.92,Log unit,OC(=O)COc1ccc(c(Cl)c1)Cl,aliph. carboxylic acid,20,?C
CC(C)(O)C(O)=O,A-HYDROXY-I-BUTYRIC ACID,3.61,Log unit,OC(=O)C(O)(C)C,aliph. carboxylic acid,25,?C
CC(C)(C(O)=O)C(O)=O,DIMETHYLMALONIC ACID,3.15,Log unit,OC(=O)C(C)(C)C(=O)O,aliph. carboxylic acid,25,?C
CCC(C)(C)C(O)=O,"2,2-DIMETHYL BUTYRIC ACID",5.03,Log unit,OC(=O)C(CC)(C)C,aliph. carboxylic acid,18,?C
C[C@H](Cl)C(O)=O,2-CHLOROPROPIONIC ACID,2.8,Log unit,OC(=O)C(Cl)C,aliph. carboxylic acid,25,?C
C[C@H](Br)C(O)=O,A-BROMOPROPIONIC ACID,2.97,Log unit,OC(=O)C(Br)C,aliph. carboxylic acid,18,?C
CCC(C(O)=O)C(O)=O,ETHYLMALONIC ACID,2.96,Log unit,OC(=O)C(CC)C(=O)O,aliph. carboxylic acid,25,?C
OC(=O)COC1=C(Cl)C=CC=C1,o-Chlorophenoxyacetic acid,3.05,Log unit,OC(=O)COc1c(Cl)cccc1,aliph. carboxylic acid,25,?C
CCCC(C(O)=O)C(O)=O,PROPYLPROPANEDIOIC ACID,2.99,Log unit,OC(=O)C(CCC)C(=O)O,aliph. carboxylic acid,25,?C
CCC[C@H](O)C(O)=O,2-hydroxy-pentanoic acid,3.89,Log unit,OC(=O)C(O)CCC,aliph. carboxylic acid,25,?C
CC1=CC=C(CC(O)=O)C=C1,p-Methylphenylacetic acid,4.37,Log unit,OC(=O)Cc1ccc(cc1)C,aliph. carboxylic acid,25,?C
CC(C)CCC(O)=O,4-METHYLPENTANOIC ACID,4.84,Log unit,OC(=O)CCC(C)C,aliph. carboxylic acid,18,?C
ON(CC(O)=O)C=O,Hadacidin,3.5,Log unit,OC(=O)CN(O)C=O,aliph. carboxylic acid,,-
CC1=CC=C(OCC(O)=O)C=C1,p-Methylphenoxyacetic acid,3.21,Log unit,OC(=O)COc1ccc(cc1)C,aliph. carboxylic acid,25,?C
CC1=CC=CC(OCC(O)=O)=C1,m-Methylphenoxyacetic acid,3.2,Log unit,OC(=O)COc1cc(ccc1)C,aliph. carboxylic acid,25,?C
OC(=O)C1CC1,CYCLOPROPANECARBOXYLIC ACID,4.83,Log unit,OC(=O)C1CC1,aliph. carboxylic acid,25,?C
OC(=O)COC1=CC=CC(Br)=C1,m-Bromophenoxyacetic acid,3.09,Log unit,OC(=O)COc1cc(Br)ccc1,aliph. carboxylic acid,25,?C
OC(=O)COC1=CC=C(C=C1)[N+]([O-])=O,p-Nitrophenoxyacetic Acid,2.89,Log unit,OC(=O)COc1ccc([N+](=O)[O-])cc1,aliph. carboxylic acid,25,?C
OC(=O)CC1=CC=C(I)C=C1,p-Iodophenylacetic acid,4.18,Log unit,OC(=O)Cc1ccc(I)cc1,aliph. carboxylic acid,25,?C
OC(=O)CCCC1=CC=CC=C1,4-Phenylbutyric acid,4.76,Log unit,OC(=O)CCCc1ccccc1,aliph. carboxylic acid,25,?C
COC1=CC=C(OCC(O)=O)C=C1,p-Methoxyphenoxyacetic acid,3.21,Log unit,OC(=O)COc1ccc(cc1)OC,aliph. carboxylic acid,25,?C
OC(=O)CC1=CC=CC(=C1)[N+]([O-])=O,m-Nitrophenylacetic acid,3.97,Log unit,OC(=O)Cc1cc([N+](=O)[O-])ccc1,aliph. carboxylic acid,25,?C
OC(=O)COC1=CC=C(I)C=C1,p-Iodophenoxyacetic acid,3.16,Log unit,OC(=O)COc1ccc(I)cc1,aliph. carboxylic acid,25,?C
OC(=O)COC1=CC=CC(I)=C1,m-Iodophenoxyacetic acid,3.13,Log unit,OC(=O)COc1cc(I)ccc1,aliph. carboxylic acid,25,?C
OC(=O)COC1=C(I)C=CC=C1,o-Iodophenoxyacetic acid,3.17,Log unit,OC(=O)COc1c(I)cccc1,aliph. carboxylic acid,25,?C
OC(=O)COC1=CC=C(Br)C=C1,p-Bromophenoxyacetic acid,3.13,Log unit,OC(=O)COc1ccc(Br)cc1,aliph. carboxylic acid,25,?C
OC(=O)COC1=CC=CC(=C1)[N+]([O-])=O,m-Nitrophenoxyacetic Acid,2.95,Log unit,OC(=O)COc1cc([N+](=O)[O-])ccc1,aliph. carboxylic acid,25,?C
OC(=O)COC1=C(C=CC=C1)[N+]([O-])=O,o-Nitrophenoxyacetic Acid,2.9,Log unit,OC(=O)COc1c([N+](=O)[O-])cccc1,aliph. carboxylic acid,25,?C
COC1=C(OCC(O)=O)C=CC=C1,O-METHOXY PHENOXYACETIC ACID,3.23,Log unit,OC(=O)COc1c(cccc1)OC,aliph. carboxylic acid,25,?C
OC(=O)COC1=CC=C(C=C1)C#N,p-Cyanophenoxyacetic acid,2.93,Log unit,OC(=O)COc1ccc(C#N)cc1,aliph. carboxylic acid,25,?C
OC(=O)CC1=CC=CC(I)=C1,m-Iodophenylacetic acid,4.16,Log unit,OC(=O)Cc1cc(I)ccc1,aliph. carboxylic acid,25,?C
OC(=O)CC1=CC=C(Br)C=C1,p-Bromophenylacetic acid,4.19,Log unit,OC(=O)Cc1ccc(Br)cc1,aliph. carboxylic acid,25,?C
OC(=O)CC1=CC=C(Cl)C=C1,P-CHLOROPHENYLACETIC ACID,4.19,Log unit,OC(=O)Cc1ccc(Cl)cc1,aliph. carboxylic acid,25,?C
OC(=O)CC1=CC=CC(Cl)=C1,m-Chlorophenylacetic acid,4.14,Log unit,OC(=O)Cc1cc(Cl)ccc1,aliph. carboxylic acid,25,?C
CC1=C(OCC(O)=O)C=CC=C1,o-Methylphenoxyacetic acid,3.23,Log unit,OC(=O)COc1c(cccc1)C,aliph. carboxylic acid,25,?C
OC(=O)COC1=CC=CC(=C1)C#N,m-Cyanophenoxyacetic acid,3.03,Log unit,OC(=O)COc1cc(C#N)ccc1,aliph. carboxylic acid,25,?C
OC(=O)COC1=C(Br)C=CC=C1,o-Bromophenoxyacetic acid,3.13,Log unit,OC(=O)COc1c(Br)cccc1,aliph. carboxylic acid,25,?C
COC1=CC=CC(OCC(O)=O)=C1,m-Methoxyphenoxyacetic acid,3.14,Log unit,OC(=O)COc1cc(ccc1)OC,aliph. carboxylic acid,25,?C
OC(=O)CCCCC1=CC=CC=C1,5-PHENYLPENTANOIC ACID,4.88,Log unit,OC(=O)CCCCc1ccccc1,aliph. carboxylic acid,20,?C
OC(=O)COC1=CC=CC2=C1C=CC=C2,(1-NAPHTHALENYLOXY)-ACETIC ACID,3.2,Log unit,OC(=O)COc1c2c(ccc1)cccc2,aliph. carboxylic acid,,-
OC(=O)CN1C(=O)SC2=CC=CC(Cl)=C12,benazolin,3.04,Log unit,OC(=O)Cn1c2c(Cl)cccc2sc1=O,aliph. carboxylic acid,,-
OC(=O)CC1CCCCC1,CYCLOHEXYLACETIC ACID,4.8,Log unit,OC(=O)Cc1ccccc1,aliph. carboxylic acid,,-
OC(=O)COC1=C(O)C=CC=C1,o-Hydroxyphenoxyacetic acid,3.02,Log unit,OC(=O)COc1c(cccc1)O,aliph. carboxylic acid,25,?C
COC1=CC=C(C=C1)[C@@H](O)C(O)=O,"BENZENEACETIC ACID, _-HYDROXY-4-METHOXY-",3.42,Log unit,OC(=O)C(c1ccc(OC)cc1)O,aliph. carboxylic acid,25,?C
CCC1=CC=C(CC(O)=O)C=C1,4-ETHYL-BENZENEACETIC ACID,4.37,Log unit,OC(=O)Cc1ccc(cc1)CC,aliph. carboxylic acid,25,?C
OC(=O)CC1=C(NC2=C(Cl)C=CC=C2Cl)C=CC=C1,Diclofenac,4.15,Log unit,OC(=O)Cc1c(Nc2c(Cl)cccc2Cl)cccc1,aliph. carboxylic acid,,-
CC(C)CC1=CC=C(C=C1)[C@@H](C)C(O)=O,Ibuprofen,4.45,Log unit,OC(=O)C(c1ccc(CC(C)C)cc1)C,aliph. carboxylic acid,,-
C[C@H](OC1=C(C)C=C(Cl)C=C1)C(O)=O,Mecoprop-P,3.68,Log unit,OC(=O)C(Oc1c(cc(Cl)cc1)C)C,aliph. carboxylic acid,20,?C
OC(=O)CCOC1=CC=CC2=C1C=CC=C2,3-(1-NAPHTHALENYLOXY)-PROPANOIC ACID,4,Log unit,OC(=O)CCOc1c2c(ccc1)cccc2,aliph. carboxylic acid,,-
OC(=O)CC1=C(N=C(S1)C1=CC=CC=C1)C1=CC=C(Cl)C=C1,FENTIAZAC,3.6,Log unit,OC(=O)Cc1c(c2ccc(Cl)cc2)nc(s1)c1ccccc1,aliph. carboxylic acid,,-
OC(=O)CC1=C(I)C=CC=C1,2-IODO-BENZENEACETIC ACID,4.04,Log unit,OC(=O)Cc1c(I)cccc1,aliph. carboxylic acid,25,?C
CCC[C@@H](CC)C(O)=O,2-ETHYLPENTANOIC ACID,4.71,Log unit,OC(=O)C(CCC)CC,aliph. carboxylic acid,18,?C
C[C@H](C(O)=O)C1=CC(=CC=C1)C(=O)C1=CC=CC=C1,Ketoprofen,4.45,Log unit,OC(=O)C(C)c1cc(ccc1)C(=O)c1ccccc1,aliph. carboxylic acid,,-
OC(=O)CC1=CC(Cl)=C(OCC=C)C=C1,ALCOFENAC,4.29,Log unit,OC(=O)Cc1ccc(c(Cl)c1)OCC=C,aliph. carboxylic acid,,-
COC1=CC2=C(C=C1)C=C(C=C2)[C@@H](C)C(O)=O,naprosyn,4.15,Log unit,OC(=O)C(c1cc2c(cc(OC)cc2)cc1)C,aliph. carboxylic acid,,-
C[C@@H](C(O)=O)C1=CC=CC(OC2=CC=CC=C2)=C1,fenoprofen,4.5,Log unit,OC(=O)C(c1cc(Oc2ccccc2)ccc1)C,aliph. carboxylic acid,,-
CC(C)(C)C1=CC=C(CC(O)=O)C=C1,"4-(1,1-DIMETHYLETHYL)-BENZENEACETIC ACID",4.42,Log unit,OC(=O)Cc1ccc(cc1)C(C)(C)C,aliph. carboxylic acid,25,?C
OC(=O)CCC(=O)C1=CC=C(C=C1)C1=CC=CC=C1,Fenbufen,4.51,Log unit,OC(=O)CCC(=O)c1ccc(cc1)c1ccccc1,aliph. carboxylic acid,,-
CC1=CC=C(CN)C=C1,"Benzenemethanamine, 4-methyl-",9.36,Log unit,NCc1ccc(cc1)C,amine (primary),25,?C
COC1=CC=C(C[C@@H](C)N)C=C1,p-Methoxyamphetamine,9.53,Log unit,NC(Cc1ccc(cc1)OC)C,amine (primary),25,?C
C[C@@H](N)CC1=CC=C2OCOC2=C1,"3,4-Methylenedioxyamphetamine ",9.67,Log unit,NC(Cc1cc2c(cc1)OCO2)C,amine (primary),25,?C
C[C@@H](N)CCC1=CC=CC=C1,"BENZENEPROPANAMINE, ?-METHYL-",9.79,Log unit,NC(CCc1ccccc1)C,amine (primary),25,?C
NCCCC1=CC=CC=C1,3-PHENYL PROPYLAMINE,10.16,Log unit,NCCCc1ccccc1,amine (primary),25,?C
NCCCCC1=CC=CC=C1,4-Phenylbutylamine,10.36,Log unit,NCCCCc1ccccc1,amine (primary),25,?C
CC(C)CN,Isobutylamine,10.68,Log unit,NCC(C)C,amine (primary),25,?C
NCC1=CC=CO1,2-AMINOMETHYLFURAN,8.89,Log unit,NCc1occc1,amine (primary),30,?C
NCC(F)(F)F,"2,2,2-trifluoroethylamine",5.7,Log unit,NCC(F)(F)F,amine (primary),,-
COC1=CC(CCN)=CC(OC)=C1OC,Mescaline,9.56,Log unit,NCCc1cc(c(c(c1)OC)OC)OC,amine (primary),,-
NCC=C,allylamine,9.7,Log unit,NCC=C,amine (primary),,-
CC[C@@H](C)N,SEC-BUTYLAMINE,10.56,Log unit,NC(CC)C,amine (primary),,-
CN,Methylamine,10.62,Log unit,NC,amine (primary),,-
CC(C)N,Isopropylamine,10.63,Log unit,NC(C)C,amine (primary),,-
CC(C)(C)N,t-Butylamine,10.68,Log unit,NC(C)(C)C,amine (primary),,-
NC1=CC(=CC=C1)C(O)=O,3-Aminobenzoic acid,3.07,Log unit,Nc1cc(ccc1)C(=O)O,aniline,25,?C
NC1=CC=C(C=C1)C(O)=O,4-Aminobenzoic acid,2.38,Log unit,Nc1ccc(cc1)C(=O)O,aniline,25,?C
NC1=CC(O)=C(C=C1)C(O)=O,P-AMINOSALICYLIC ACID,2.05,Log unit,Nc1cc(c(cc1)C(=O)O)O,aniline,25,?C
NC1=CC=C(O)C=C1,"Phenol, 4-amino-",5.48,Log unit,Nc1ccc(cc1)O,aniline,,-
NC1=CC(O)=CC=C1,"Phenol, 3-amino-",4.37,Log unit,Nc1cc(ccc1)O,aniline,20,?C
NC1=CC(=CC(=C1)[N+]([O-])=O)[N+]([O-])=O,"3,5-dinitroaniline",0.298,Log unit,Nc1cc(cc([N+](=O)[O-])c1)[N+](=O)[O-],aniline,15,?C
NC1=CC(Cl)=CC(Cl)=C1,"3,5-Dichloroaniline",2.509,Log unit,Nc1cc(cc(Cl)c1)Cl,aniline,15,?C
NC1=CC=C(C=C1)C1=CC=CC=C1,4-Aminobiphenyl,4.35,Log unit,Nc1ccc(cc1)c1ccccc1,aniline,18,?C
CC1=C(C=CC(N)=C1)[N+]([O-])=O,3-METHYL-4-NITROANILINE,1.64,Log unit,Nc1cc(c([N+](=O)[O-])cc1)C,aniline,20,?C
NC1=CC=C(C=C1)C(=O)C1=CC=CC=C1,4-Benzoylaniline,2.24,Log unit,Nc1ccc(cc1)C(=O)c1ccccc1,aniline,20,?C
CC1=CC(N)=CC(C)=C1[N+]([O-])=O,"3,5-DIMETHYL-4-NITROBENZENAMINE",2.54,Log unit,Nc1cc(c([N+](=O)[O-])c(c1)C)C,aniline,21,?C
CC1=CC(=C(N)C=C1)[N+]([O-])=O,2-NITRO-P-TOLUIDINE,0.403,Log unit,Nc1c([N+](=O)[O-])cc(cc1)C,aniline,25,?C
CS(=O)(=O)C1=CC=C(N)C=C1,4-METHYLSULFONYLANILINE,1.35,Log unit,Nc1ccc(S(=O)(=O)C)cc1,aniline,25,?C