Smiles,Name,pKa,pKa Unit,Ionizable center smiles,IC group,Temperature,Temperature Unit
OCC(O)=O,hydroxyacetic acid,3.83,Log unit,O=C(O)CO,aliph. carboxylic acid,,-
COC1=CC=CC(OCC(O)=O)=C1,m-Methoxyphenoxyacetic acid,3.14,Log unit,O=C(O)COc1cc(ccc1)OC,aliph. carboxylic acid,25,?C
CS(=O)(=O)C1=CC=C(C=C1)C(O)=O,p-Methylsulfonylbenzoic acid,3.64,Log unit,O=C(O)c1ccc(S(=O)(=O)C)cc1,benzoic acid (meta/para subs.),,-
OC(=O)C1=C(O)C=CC=C1O,"2,6-Dihydroxybenzoic Acid",1.051,Log unit,O=C(O)c1c(O)cccc1O,benzoic acid (ortho subs.),25,?C
OC(=O)CC1=CC(Cl)=C(OCC=C)C=C1,ALCOFENAC,4.29,Log unit,O=C(O)Cc1ccc(c(Cl)c1)OCC=C,aliph. carboxylic acid,,-
OC(=O)COC1=CC=C(C=C1)[N+]([O-])=O,p-Nitrophenoxyacetic Acid,2.89,Log unit,O=C(O)COc1ccc([N+](=O)[O-])cc1,aliph. carboxylic acid,25,?C
OC(=O)COC1=C(Br)C=CC=C1,o-Bromophenoxyacetic acid,3.13,Log unit,O=C(O)COc1c(Br)cccc1,aliph. carboxylic acid,25,?C
COC1=CC=C(OCC(O)=O)C=C1,p-Methoxyphenoxyacetic acid,3.21,Log unit,O=C(O)COc1ccc(cc1)OC,aliph. carboxylic acid,25,?C
OC(=O)COC1=CC=C(C=C1)C#N,p-Cyanophenoxyacetic acid,2.93,Log unit,O=C(O)COc1ccc(C#N)cc1,aliph. carboxylic acid,25,?C
OC(=O)COC1=CC=CC(=C1)[N+]([O-])=O,m-Nitrophenoxyacetic Acid,2.95,Log unit,O=C(O)COc1cc([N+](=O)[O-])ccc1,aliph. carboxylic acid,25,?C
CC1(C)S[C@@H]2[C@H](NC(=O)COC3=CC=CC=C3)C(=O)N2[C@@H]1C(O)=O,Phenoxymethylpenicillin,2.79,Log unit,O=C(O)C1N2C(SC1(C)C)C(C2=O)NC(=O)COc1ccccc1,aliph. carboxylic acid,,-
CC(=O)OC1=C(C=CC=C1)C(O)=O,Acetylsalicylic acid,3.49,Log unit,O=C(O)c1c(O=C(O)C)cccc1,benzoic acid (ortho subs.),25,?C
CC(C)(O)C(O)=O,A-HYDROXY-I-BUTYRIC ACID,3.61,Log unit,O=C(O)C(O)(C)C,aliph. carboxylic acid,25,?C
OC(=O)CCCCC1=CC=CC=C1,5-PHENYLPENTANOIC ACID,4.88,Log unit,O=C(O)CCCCc1ccccc1,aliph. carboxylic acid,20,?C
OC(=O)CC1=CC=C(Cl)C=C1,P-CHLOROPHENYLACETIC ACID,4.19,Log unit,O=C(O)Cc1ccc(Cl)cc1,aliph. carboxylic acid,25,?C
OC(=O)COC1=C(F)C=CC=C1,o-Fluorophenoxyacetic acid,3.08,Log unit,O=C(O)COc1c(F)cccc1,aliph. carboxylic acid,25,?C
COC1=CC2=C(C=C1)N(C(=O)C1=CC=C(Cl)C=C1)C(C)=C2CC(O)=O,Indomethacin,4.5,Log unit,O=C(O)Cc1c2c(n(C(=O)c3ccc(Cl)cc3)c1C)ccc(c2)OC,aliph. carboxylic acid,,-
OC(=O)C1=C(I)C=CC=C1,2-IODOBENZOIC ACID,2.93,Log unit,O=C(O)c1c(I)cccc1,benzoic acid (ortho subs.),20,?C
COC1=CC2=C(C=C1)C=C(C=C2)[C@@H](C)C(O)=O,naprosyn,4.15,Log unit,O=C(O)C(c1cc2c(cc(OC)cc2)cc1)C,aliph. carboxylic acid,,-
OC(=O)COC1=CC=CC(Br)=C1,m-Bromophenoxyacetic acid,3.09,Log unit,O=C(O)COc1cc(Br)ccc1,aliph. carboxylic acid,25,?C
OC(=O)CS,Mercaptoacetic acid,3.55,Log unit,O=C(O)CS,aliph. carboxylic acid,,-
OC(=O)CC1=C(NC2=C(Cl)C=CC=C2Cl)C=CC=C1,Diclofenac,4.15,Log unit,O=C(O)Cc1c(Nc2c(Cl)cccc2Cl)cccc1,aliph. carboxylic acid,,-
OC(=O)C1=CC(I)=CC(I)=C1O,"3,5-diiodosalicylic acid",2.299,Log unit,O=C(O)c1c(c(I)cc(c1)I)O,benzoic acid (ortho subs.),25,?C
C[C@H](C(O)=O)C1=CC(=CC=C1)C(=O)C1=CC=CC=C1,Ketoprofen,4.45,Log unit,O=C(O)C(C)c1cc(ccc1)C(=O)c1ccccc1,aliph. carboxylic acid,,-
OC(=O)COC1=CC(F)=CC=C1,m-Fluorophenoxyacetic acid,3.13,Log unit,O=C(O)COc1cc(F)ccc1,aliph. carboxylic acid,25,?C
CCCC(O)=O,butyric acid,4.82,Log unit,O=C(O)CCC,aliph. carboxylic acid,25,?C
CC(C)CCC(O)=O,4-METHYLPENTANOIC ACID,4.84,Log unit,O=C(O)CCC(C)C,aliph. carboxylic acid,18,?C
CCOC1=C(C=CC(N)=C1)C(O)=O,2-Ethoxy-4-aminobenzoic acid,5.09,Log unit,O=C(O)c1c(cc(N)cc1)OCC,benzoic acid (ortho subs.),,-
OC(=O)CC1=CC=C(I)C=C1,p-Iodophenylacetic acid,4.18,Log unit,O=C(O)Cc1ccc(I)cc1,aliph. carboxylic acid,25,?C
OC(=O)COC1=CC=CC(I)=C1,m-Iodophenoxyacetic acid,3.13,Log unit,O=C(O)COc1cc(I)ccc1,aliph. carboxylic acid,25,?C
OC(=O)CCl,chloroacetic acid,2.866,Log unit,O=C(O)CCl,aliph. carboxylic acid,25,?C
CC(C)CC(O)=O,ISOVALERIC ACID,4.77,Log unit,O=C(O)CC(C)C,aliph. carboxylic acid,20,?C
CC1=CC=C(CC(O)=O)C=C1,p-Methylphenylacetic acid,4.37,Log unit,O=C(O)Cc1ccc(cc1)C,aliph. carboxylic acid,25,?C
CC(C)CC1=CC=C(C=C1)[C@@H](C)C(O)=O,Ibuprofen,4.45,Log unit,O=C(O)C(c1ccc(CC(C)C)cc1)C,aliph. carboxylic acid,,-
NC1=CC=C(C=C1)C(=O)NCC(O)=O,N-(4-AMINOBENZOYL)-GLYCINE,3.8,Log unit,O=C(O)CNC(=O)c1ccc(cc1)N,aliph. carboxylic acid,,-
NC1=C(Cl)C(=CC(Cl)=C1)C(O)=O,"3-Amino-2,5-dichlorobenzoic acid",3.4,Log unit,O=C(O)c1c(Cl)c(cc(c1)Cl)N,benzoic acid (ortho subs.),,-
OC(=O)CN1C(=O)SC2=CC=CC(Cl)=C12,benazolin,3.04,Log unit,O=C(O)Cn1c2c(Cl)cccc2sc1=O,aliph. carboxylic acid,,-
CC1=CC=CC(NC2=C(C=CC=C2)C(O)=O)=C1C,mefenamic acid,4.2,Log unit,O=C(O)c1c(Nc2c(c(ccc2)C)C)cccc1,benzoic acid (ortho subs.),,-
OC(=O)C1=C(O)C=CC(Br)=C1,5-Bromosalicylic acid,2.66,Log unit,O=C(O)c1c(O)ccc(Br)c1,benzoic acid (ortho subs.),25,?C
COC1=C(OCC(O)=O)C=CC=C1,O-METHOXY PHENOXYACETIC ACID,3.23,Log unit,O=C(O)COc1c(cccc1)OC,aliph. carboxylic acid,25,?C
OC(=O)C1=C(Cl)C=CC=C1,2-Chlorobenzoic Acid,2.89,Log unit,O=C(O)c1c(Cl)cccc1,benzoic acid (ortho subs.),25,?C
COC1=C(C=CC=C1)C(O)=O,o-Methoxybenzoic Acid,3.9,Log unit,O=C(O)c1c(OC)cccc1,benzoic acid (ortho subs.),25,?C
CC(C)(C)C(O)=O,"2,2-Dimethyl propanoic acid",5.031,Log unit,O=C(O)C(C)(C)C,aliph. carboxylic acid,25,?C
COC1=C(Cl)C=CC(Cl)=C1C(O)=O,dicamba,1.97,Log unit,O=C(O)c1c(c(Cl)ccc1Cl)OC,benzoic acid (ortho subs.),,-
C[C@@]12[C@H]3[C@H](C(O)=O)[C@@]45CC(=C)[C@@](O)(C4)CC[C@H]5[C@]3(OC1=O)C=C[C@@H]2O,gibberellic acid,4,Log unit,O=C(O)C1C2[C@@]3(O=C(O)[C@@]2(C(C=C3)O)C)C2[C@@]31C[C@@](CC2)(C(=C)C3)O,aliph. carboxylic acid,,-
OC(=O)CCCC1=CC=C(C=C1)N(CCCl)CCCl,Chlorambucil,5.75,Log unit,O=C(O)CCCc1ccc(N(CCCl)CCCl)cc1,aliph. carboxylic acid,,-
OC(=O)CBr,Bromoacetic Acid,2.89,Log unit,O=C(O)CBr,aliph. carboxylic acid,20,?C
OC(=O)CCI,3-IODOPROPIONIC ACID,4.09,Log unit,O=C(O)CCI,aliph. carboxylic acid,18,?C
CC(C)C(O)=O,isobutyric acid,4.84,Log unit,O=C(O)C(C)C,aliph. carboxylic acid,20,?C
OC(=O)COC1=CC=CC=C1,phenoxyacetic acid,3.17,Log unit,O=C(O)COc1ccccc1,aliph. carboxylic acid,25,?C
OC(=O)COC1=C(O)C=CC=C1,o-Hydroxyphenoxyacetic acid,3.02,Log unit,O=C(O)COc1c(cccc1)O,aliph. carboxylic acid,25,?C
OC(=O)CC1=CC=C(F)C=C1,p-Fluorophenylacetic acid,4.24,Log unit,O=C(O)Cc1ccc(F)cc1,aliph. carboxylic acid,25,?C
OC(=O)CC1=CC=CC(I)=C1,m-Iodophenylacetic acid,4.16,Log unit,O=C(O)Cc1cc(I)ccc1,aliph. carboxylic acid,25,?C
CCCC(CCC)C(O)=O,Valproic acid,4.6,Log unit,O=C(O)C(CCC)CCC,aliph. carboxylic acid,,-
COC1=CC=C(CC(O)=O)C=C1,p-Methoxyphenylacetic acid,4.36,Log unit,O=C(O)Cc1ccc(OC)cc1,aliph. carboxylic acid,25,?C
OC(=O)C1CCCCC1,cyclohexanecarboxylic acid,4.9,Log unit,O=C(O)C1CCCCC1,aliph. carboxylic acid,,-
OC(=O)CCCC1=CC=CC=C1,4-Phenylbutyric acid,4.76,Log unit,O=C(O)CCCc1ccccc1,aliph. carboxylic acid,25,?C
OC(=O)CC(O)=O,malonic acid,2.85,Log unit,O=C(O)CC(=O)O,aliph. carboxylic acid,25,?C
OC(=O)COC1=C(Cl)C=CC=C1,o-Chlorophenoxyacetic acid,3.05,Log unit,O=C(O)COc1c(Cl)cccc1,aliph. carboxylic acid,25,?C
CC(C)(C(O)=O)C(O)=O,DIMETHYLMALONIC ACID,3.15,Log unit,O=C(O)C(C)(C)C(=O)O,aliph. carboxylic acid,25,?C
OC(=O)COC1=C(Cl)C=C(Cl)C=C1,"2,4-Dichlorophenoxyacetic acid",2.73,Log unit,O=C(O)COc1c(Cl)cc(cc1)Cl,aliph. carboxylic acid,,-
OC(=O)COC1=C(I)C=CC=C1,o-Iodophenoxyacetic acid,3.17,Log unit,O=C(O)COc1c(I)cccc1,aliph. carboxylic acid,25,?C
CCC(CC)C(O)=O,2-ethylbutyric acid,4.71,Log unit,O=C(O)C(CC)CC,aliph. carboxylic acid,20,?C
OC(=O)[C@@H]1CCN2C1=CC=C2C(=O)C1=CC=CC=C1,Ketorolac,3.49,Log unit,O=C(O)C1c2n(c(cc2)C(=O)c2ccccc2)CC1,aliph. carboxylic acid,,-
OC(=O)C1=C(OC2=CC=CC=C2)C=CC=C1,o-Phenoxybenzoic acid,3.53,Log unit,O=C(O)c1c(Oc2ccccc2)cccc1,benzoic acid (ortho subs.),,-
OC(=O)C1=C(O)C=CC(=C1)[N+]([O-])=O,5-Nitrosalicylic acid,2.12,Log unit,O=C(O)c1cc([N+](=O)[O-])ccc1O,benzoic acid (ortho subs.),25,?C
OC(=O)CC1=CC=CC2=C1C=CC=C2,NAPHTHALENEACETIC ACID,4.23,Log unit,O=C(O)Cc1c2c(ccc1)cccc2,aliph. carboxylic acid,25,?C
OC(=O)C(C1=CC=CC=C1)C1=CC=CC=C1,diphenylacetic acid,3.94,Log unit,O=C(O)C(c1ccccc1)c1ccccc1,aliph. carboxylic acid,25,?C
OC(=O)CCCl,3-CHLOROPROPIONIC ACID,3.99,Log unit,O=C(O)CCCl,aliph. carboxylic acid,25,?C
CC1=C(OCC(O)=O)C=CC=C1,o-Methylphenoxyacetic acid,3.23,Log unit,O=C(O)COc1c(cccc1)C,aliph. carboxylic acid,25,?C
OC(=O)CC1=CC=C(Br)C=C1,p-Bromophenylacetic acid,4.19,Log unit,O=C(O)Cc1ccc(Br)cc1,aliph. carboxylic acid,25,?C
CC(=O)NC1=C(C=CC=C1)C(O)=O,N-ACETYL O-AMINOBENZOIC ACID,3.4,Log unit,O=C(O)c1c(NC(=O)C)cccc1,benzoic acid (ortho subs.),,-
CC(O)=O,acetic acid,4.76,Log unit,O=C(O)C,aliph. carboxylic acid,25,?C
OC(=O)CC1=C(Cl)C=CC(Cl)=C1Cl,Fenac,3.7,Log unit,O=C(O)Cc1c(Cl)c(ccc1Cl)Cl,aliph. carboxylic acid,25,?C
OC(=O)COC1=NC(Cl)=C(Cl)C=C1Cl,TRICLOPYR,2.68,Log unit,O=C(O)COc1nc(Cl)c(cc1Cl)Cl,aliph. carboxylic acid,,-
OC(=O)COC1=CC=C(I)C=C1,p-Iodophenoxyacetic acid,3.16,Log unit,O=C(O)COc1ccc(I)cc1,aliph. carboxylic acid,25,?C
NC1=C(C=CC=C1)C(O)=O,2-aminobenzoic acid,4.95,Log unit,O=C(O)c1c(N)cccc1,benzoic acid (ortho subs.),,-
OC(=O)CC1=CNC2=C1C=CC=C2,indole-3-acetic acid,4.75,Log unit,O=C(O)Cc1c2c([nH]c1)cccc2,aliph. carboxylic acid,,-
CC1=CC=C(OCC(O)=O)C=C1,p-Methylphenoxyacetic acid,3.21,Log unit,O=C(O)COc1ccc(cc1)C,aliph. carboxylic acid,25,?C
OC(=O)C1=C(C=CC=C1)[N+]([O-])=O,2-NITROBENZOIC ACID,2.17,Log unit,O=C(O)c1c([N+](=O)[O-])cccc1,benzoic acid (ortho subs.),20,?C
OC(=O)COC1=CC(Cl)=C(Cl)C=C1Cl,"2,4,5-trichlorophenoxyacetic acid",2.833,Log unit,O=C(O)COc1cc(c(Cl)cc1Cl)Cl,aliph. carboxylic acid,25,?C
OC(=O)COC1=CC(Cl)=C(Cl)C=C1,"3,4-Dichlorophenoxyacetic acid",2.92,Log unit,O=C(O)COc1ccc(c(Cl)c1)Cl,aliph. carboxylic acid,20,?C
OC(=O)COC1=CC=C(Cl)C=C1,p-Chlorophenoxyacetic acid,3.1,Log unit,O=C(O)COc1ccc(Cl)cc1,aliph. carboxylic acid,25,?C
OC(=O)COC1=CC=C(Br)C=C1,p-Bromophenoxyacetic acid,3.13,Log unit,O=C(O)COc1ccc(Br)cc1,aliph. carboxylic acid,25,?C
OC(=O)C1=C(O)C=C(O)C=C1,"2,4-Dihydroxybenzoic Acid",3.11,Log unit,O=C(O)c1c(O)cc(cc1)O,benzoic acid (ortho subs.),25,?C
OC(=O)C(O)(C1=CC=CC=C1)C1=CC=CC=C1,benzilic acid,3.05,Log unit,O=C(O)C(O)(c1ccccc1)c1ccccc1,aliph. carboxylic acid,18,?C
OC(=O)COC1=CC=CC(=C1)C#N,m-Cyanophenoxyacetic acid,3.03,Log unit,O=C(O)COc1cc(C#N)ccc1,aliph. carboxylic acid,25,?C
CC1=CC=CC(OCC(O)=O)=C1,m-Methylphenoxyacetic acid,3.2,Log unit,O=C(O)COc1cc(ccc1)C,aliph. carboxylic acid,25,?C
OC(=O)CC1=CC=CC(Cl)=C1,m-Chlorophenylacetic acid,4.14,Log unit,O=C(O)Cc1cc(Cl)ccc1,aliph. carboxylic acid,25,?C
CC1=C(OCC(O)=O)C=CC(Cl)=C1,2-METHYL-4-CHLOROPHENOXYACETIC ACID,3.13,Log unit,O=C(O)COc1c(cc(Cl)cc1)C,aliph. carboxylic acid,25,?C
OC(=O)CC1=CC=CC=C1,phenylacetic acid,4.31,Log unit,O=C(O)Cc1ccccc1,aliph. carboxylic acid,,-
NC1=CC(O)=C(C=C1)C(O)=O,P-AMINOSALICYLIC ACID,3.66,Log unit,O=C(O)c1c(cc(N)cc1)O,benzoic acid (ortho subs.),25,?C
OC(=O)CC1=CC=CC(=C1)[N+]([O-])=O,m-Nitrophenylacetic acid,3.97,Log unit,O=C(O)Cc1cc([N+](=O)[O-])ccc1,aliph. carboxylic acid,25,?C
OC(=O)C1=C(O)C=CC(O)=C1,"2,5-Dihydroxybenzoic acid",2.951,Log unit,O=C(O)c1c(O)ccc(c1)O,benzoic acid (ortho subs.),25,?C
CCC(O)=O,Propionic Acid,4.875,Log unit,O=C(O)CC,aliph. carboxylic acid,,-
OC(=O)CCC1=CC=CC=C1,BETA-PHENYLPROPIONIC ACID,4.66,Log unit,O=C(O)CCc1ccccc1,aliph. carboxylic acid,18,?C
OC(=O)COC1=CC=CC(Cl)=C1,m-Chlorophenoxyacetic acid,3.07,Log unit,O=C(O)COc1cc(Cl)ccc1,aliph. carboxylic acid,25,?C
OC(=O)CC1=CC=C(C=C1)[N+]([O-])=O,p-nitrophenylacetic acid,3.85,Log unit,O=C(O)Cc1ccc([N+](=O)[O-])cc1,aliph. carboxylic acid,25,?C
OC(=O)CC1=CC=CC(F)=C1,m-Fluorophenylacetic acid,4.13,Log unit,O=C(O)Cc1cc(F)ccc1,aliph. carboxylic acid,25,?C
OC(=O)C1=C(O)C=CC=C1,Salicylic acid,2.97,Log unit,O=C(O)c1c(O)cccc1,benzoic acid (ortho subs.),,-
OC(=O)CCCOC1=C(Cl)C=C(Cl)C=C1,"4-(2,4-DICHLOROPHENOXY)BUTYRIC ACID",4.95,Log unit,O=C(O)CCCOc1c(Cl)cc(cc1)Cl,aliph. carboxylic acid,25,?C
C[C@@H](N(C(=O)C1=CC=CC=C1)C1=CC(Cl)=C(F)C=C1)C(O)=O,Flamprop,3.72,Log unit,O=C(O)C(N(c1cc(Cl)c(F)cc1)C(=O)c1ccccc1)C,aliph. carboxylic acid,20,?C
C[C@H](OC1=CC=C(OC2=NC=C(C=C2)C(F)(F)F)C=C1)C(O)=O,Fluazifop,3.12,Log unit,O=C(O)C(Oc1ccc(Oc2ncc(C(F)(F)F)cc2)cc1)C,aliph. carboxylic acid,20,?C
OC(=O)COC1=CC=C(F)C=C1,p-Fluorophenoxyacetic acid,3.13,Log unit,O=C(O)COc1ccc(F)cc1,aliph. carboxylic acid,25,?C
OC(=O)CCC(=O)C1=CC=C(C=C1)C1=CC=CC=C1,Fenbufen,4.51,Log unit,O=C(O)CCC(=O)c1ccc(cc1)c1ccccc1,aliph. carboxylic acid,,-
OC(=O)C1=C(NC2=CC=CC=C2)C=CC=C1,N-PHENYL O-AMINOBENZOIC ACID,3.99,Log unit,O=C(O)c1c(Nc2ccccc2)cccc1,benzoic acid (ortho subs.),,-
CC1=C(C=CC=C1)C(O)=O,o-toluic acid,3.98,Log unit,O=C(O)c1c(cccc1)C,benzoic acid (ortho subs.),20,?C
OC(=O)C(F)(F)F,Trifluoroacetic acid,0.52,Log unit,O=C(O)C(F)(F)F,aliph. carboxylic acid,25,?C
COC1=C(O)C=CC(CC(O)=O)=C1,4-HYDROXY-3-METHOXY-BENZENEACETIC ACID,4.41,Log unit,O=C(O)Cc1ccc(c(OC)c1)O,aliph. carboxylic acid,25,?C
OC(=O)C1=C(Cl)C=CC=C1Cl,"2,6-DICHLOROBENZOIC ACID",1.59,Log unit,O=C(O)c1c(Cl)cccc1Cl,benzoic acid (ortho subs.),25,?C
OC(=O)C1=C(Cl)C=CC(Cl)=C1Cl,"2,3,6-TRICHLOROBENZOIC ACID",1.5,Log unit,O=C(O)c1c(Cl)c(ccc1Cl)Cl,benzoic acid (ortho subs.),25,?C
OC(=O)C1=C(Cl)C=CC(Cl)=C1,"2,5-DICHLOROBENZOIC ACID",2.466,Log unit,O=C(O)c1c(Cl)ccc(c1)Cl,benzoic acid (ortho subs.),25,?C
OC(=O)C1=C(Cl)C=C(Cl)C=C1,"2,4-DICHLOROBENZOIC ACID",2.68,Log unit,O=C(O)c1c(Cl)cc(cc1)Cl,benzoic acid (ortho subs.),25,?C
CC1=CC(O)=C(C=C1)C(O)=O,4-METHYLSALICYLIC ACID,3.4,Log unit,O=C(O)c1c(O)cc(cc1)C,benzoic acid (ortho subs.),25,?C
OC(=O)CI,IODO-ACETIC ACID,3.15,Log unit,O=C(O)CI,aliph. carboxylic acid,,-
CC(Cl)(Cl)C(O)=O,DALAPON,1.79,Log unit,O=C(O)C(Cl)(Cl)C,aliph. carboxylic acid,,-
OC(=O)C(Cl)(Cl)Cl,TRICHLOROACETIC ACID,0.512,Log unit,O=C(O)C(Cl)(Cl)Cl,aliph. carboxylic acid,,-
OC(=O)C(Cl)Cl,DICHLOROACETIC ACID,1.26,Log unit,O=C(O)C(Cl)Cl,aliph. carboxylic acid,,-
CC1=C(O)C(=CC=C1)C(O)=O,3-METHYLSALICYLIC ACID,2.95,Log unit,O=C(O)c1c(O)c(ccc1)C,benzoic acid (ortho subs.),25,?C
OC(=O)C1=C(Br)C=CC=C1,O-BROMOBENZOIC ACID,2.88,Log unit,O=C(O)c1c(Br)cccc1,benzoic acid (ortho subs.),20,?C
CC1=CC(C(O)=O)=C(O)C=C1,5-METHYLSALICYLIC ACID,3.15,Log unit,O=C(O)c1c(O)ccc(c1)C,benzoic acid (ortho subs.),25,?C
COC1=CC(OC)=C(C=C1)C(O)=O,"2,4-DIMETHOXYBENZOIC ACID",4.36,Log unit,O=C(O)c1c(OC)cc(cc1)OC,benzoic acid (ortho subs.),25,?C
OC(=O)C1=C(O)C=C2C=CC=CC2=C1,"2-NAPHTHALENECARBOXYLIC ACID, 3-HYDROXY-",2.79,Log unit,O=C(O)c1c(O)cc2c(c1)cccc2,benzoic acid (ortho subs.),25,?C
CC1=C(OCCCC(O)=O)C=CC(Cl)=C1,MCPB,6.2,Log unit,O=C(O)CCCOc1c(cc(Cl)cc1)C,aliph. carboxylic acid,25,?C
OC(=O)C1=C(Cl)C=C(C=C1)[N+]([O-])=O,2-CHLORO-4-NITRO-BENZOIC ACID,2.14,Log unit,O=C(O)c1c(cc([N+](=O)[O-])cc1)Cl,benzoic acid (ortho subs.),,-
OC(=O)CC1=CC(O)=C(O)C=C1,"3,4-DIHYDROXYPHENYLACETIC ACID",4.25,Log unit,O=C(O)Cc1ccc(c(O)c1)O,aliph. carboxylic acid,30,?C
OC(=O)C1=C(O)C=CC(I)=C1,2-HYDROXY-5-IODO-BENZOIC ACID,2.619,Log unit,O=C(O)c1cc(I)ccc1O,benzoic acid (ortho subs.),25,?C
CC(=O)CCC(O)=O,LEVULINIC ACID,4.64,Log unit,O=C(O)CCC(=O)C,aliph. carboxylic acid,18,?C
OC(=O)C1=C(C=C(C=C1[N+]([O-])=O)[N+]([O-])=O)[N+]([O-])=O,"2,4,6-TRINITROBENZOIC ACID",0.654,Log unit,O=C(O)c1c([N+](=O)[O-])cc(cc1[N+](=O)[O-])[N+](=O)[O-],benzoic acid (ortho subs.),25,?C
OC(=O)CF,FLUOROACETIC ACID,2.586,Log unit,O=C(O)CF,aliph. carboxylic acid,25,?C
OC(=O)C1=CC=CC(O)=C1O,"2,3-DIHYDROXYBENZOIC ACID",2.914,Log unit,O=C(O)c1c(O)c(ccc1)O,benzoic acid (ortho subs.),25,?C
OC(=O)C1=C(O)C=CC(Cl)=C1,5-CHLOROSALICYLIC ACID,2.65,Log unit,O=C(O)c1cc(Cl)ccc1O,benzoic acid (ortho subs.),25,?C
OC(=O)CC#N,CYANOACETIC ACID,2.45,Log unit,O=C(O)CC#N,aliph. carboxylic acid,25,?C
OC(=O)C1=C(F)C=CC=C1,2-FLUOROBENZOIC ACID,3.27,Log unit,O=C(O)c1c(F)cccc1,benzoic acid (ortho subs.),25,?C
NC(=O)NCC(O)=O,N-(AMINOCARBONYL)GLYCINE,3.889,Log unit,O=C(O)CNC(=O)N,aliph. carboxylic acid,15,?C
OC(=O)C1(O)C2=C(C=CC=C2)C2=C1C=CC=C2,FLURENOL,1.09,Log unit,O=C(O)C1(O)c2c(cccc2)c2c1cccc2,aliph. carboxylic acid,,-
OCCC(O)=O,Hydracrylic Acid,4.51,Log unit,O=C(O)CCO,aliph. carboxylic acid,25,?C
CC(C(O)=O)C(O)=O,METHYL MALONIC ACID,3.12,Log unit,O=C(O)C(C)C(=O)O,aliph. carboxylic acid,20,?C
CC(=O)C1=C(C=CC=C1)C(O)=O,O-ACETYLBENZOIC ACID,4.126,Log unit,O=C(O)c1c(cccc1)C(=O)C,benzoic acid (ortho subs.),25,?C
OC(=O)CC1=CC2=C(C=CC=C2)C=C1,2-NAPHTHALENEACETIC ACID,4.25,Log unit,O=C(O)Cc1cc2c(cc1)cccc2,aliph. carboxylic acid,25,?C
CCC(C)(C)C(O)=O,"2,2-DIMETHYL BUTYRIC ACID",5.03,Log unit,O=C(O)C(CC)(C)C,aliph. carboxylic acid,18,?C
CCC(C(O)=O)C(O)=O,ETHYLMALONIC ACID,2.96,Log unit,O=C(O)C(CC)C(=O)O,aliph. carboxylic acid,25,?C
OC(=O)C1=CC(=CC(=C1O)[N+]([O-])=O)[N+]([O-])=O,"2-HYDROXY-3,5-DINITRO-BENZOIC ACID",0.7,Log unit,O=C(O)c1c(c([N+](=O)[O-])cc(c1)[N+](=O)[O-])O,benzoic acid (ortho subs.),25,?C
OC(=O)C1=C(C=C(C=C1)[N+]([O-])=O)[N+]([O-])=O,"2,4-DINITROBENZOIC ACID",1.42,Log unit,O=C(O)c1c([N+](=O)[O-])cc(cc1)[N+](=O)[O-],benzoic acid (ortho subs.),25,?C
CCCC(C(O)=O)C(O)=O,PROPYLPROPANEDIOIC ACID,2.99,Log unit,O=C(O)C(CCC)C(=O)O,aliph. carboxylic acid,25,?C
CC1=CC=CC(C)=C1C(O)=O,"2,6-DIMETHYLBENZOIC ACID",3.345,Log unit,O=C(O)c1c(cccc1C)C,benzoic acid (ortho subs.),25,?C
ON(CC(O)=O)C=O,Hadacidin,3.5,Log unit,O=C(O)CN(O)C=O,aliph. carboxylic acid,,-
CC1=C(F)C(F)=C(C(O)=O)C(F)=C1F,"2,3,5,6-TETRAFLUORO-4-METHYL-BENZOIC ACID",2,Log unit,O=C(O)c1c(c(F)c(c(c1F)F)C)F,benzoic acid (ortho subs.),25,?C
OC(=O)C1=C(C=CC=C1)C1=CC=CC=C1,"[1,1'-BIPHENYL]-2-CARBOXYLIC ACID",3.46,Log unit,O=C(O)c1c(cccc1)c1ccccc1,benzoic acid (ortho subs.),,-
COC1=CC=CC(OC)=C1C(O)=O,"2,6-DIMETHOXYBENZOIC ACID",3.44,Log unit,O=C(O)c1c(OC)cccc1OC,benzoic acid (ortho subs.),25,?C
COC1=C(OC)C(=CC=C1)C(O)=O,"2,3-DIMETHOXYBENZOIC ACID",3.98,Log unit,O=C(O)c1c(OC)c(ccc1)OC,benzoic acid (ortho subs.),25,?C
OC(=O)C1CC1,CYCLOPROPANECARBOXYLIC ACID,4.83,Log unit,O=C(O)C1CC1,aliph. carboxylic acid,25,?C
OC(=O)COC1=C(C=CC=C1)[N+]([O-])=O,o-Nitrophenoxyacetic Acid,2.9,Log unit,O=C(O)COc1c([N+](=O)[O-])cccc1,aliph. carboxylic acid,25,?C
CC(C)C1=C(C=CC=C1)C(O)=O,O-ISOPROPYLBENZOIC ACID,3.63,Log unit,O=C(O)c1c(cccc1)C(C)C,benzoic acid (ortho subs.),25,?C
OC(=O)C1=C(Cl)C=CC(=C1)[N+]([O-])=O,2-CHLORO-5-NITROBENZOIC ACID,2.17,Log unit,O=C(O)c1cc([N+](=O)[O-])ccc1Cl,benzoic acid (ortho subs.),25,?C
OC(=O)COC1=CC=CC2=C1C=CC=C2,(1-NAPHTHALENYLOXY)-ACETIC ACID,3.2,Log unit,O=C(O)COc1c2c(ccc1)cccc2,aliph. carboxylic acid,,-
OC(=O)C1=CC=CC(OC2=CC=CC=C2)=C1,M-PHENOXYBENZOIC ACID,3.92,Log unit,O=C(O)c1cc(Oc2ccccc2)ccc1,benzoic acid (meta/para subs.),,-
OC(=O)C1=CC=CC(=C1Cl)[N+]([O-])=O,2-CHLORO-3-NITROBENZOIC ACID,2.02,Log unit,O=C(O)c1c(c([N+](=O)[O-])ccc1)Cl,benzoic acid (ortho subs.),25,?C
OC(=O)C1=C(C=CC=C1)C(=O)NC1=CC=CC=C1,N-Phenylphthalamic acid,2.5,Log unit,O=C(O)c1c(C(=O)Nc2ccccc2)cccc1,benzoic acid (ortho subs.),,-
OC(=O)CC1CCCCC1,CYCLOHEXYLACETIC ACID,4.8,Log unit,O=C(O)Cc1ccccc1,aliph. carboxylic acid,,-
OC(=O)C1=C(C=CC=C1Cl)[N+]([O-])=O,2-CHLORO-6-NITRO-BENZOIC ACID,1.34,Log unit,O=C(O)c1c([N+](=O)[O-])cccc1Cl,benzoic acid (ortho subs.),25,?C
CCCOC1=CC=C(C=C1)C(O)=O,4-PROPOXYBENZOIC ACID,4.46,Log unit,O=C(O)c1ccc(OCCC)cc1,benzoic acid (meta/para subs.),20,?C
NC(=O)CNC1=C(C=CC=C1)C(O)=O,2-[(ACETYLAMINO)AMINO]-BENZOIC ACID,4.2,Log unit,O=C(O)c1c(NCC(=O)N)cccc1,benzoic acid (ortho subs.),,-
CCC1=CC=C(CC(O)=O)C=C1,4-ETHYL-BENZENEACETIC ACID,4.37,Log unit,O=C(O)Cc1ccc(cc1)CC,aliph. carboxylic acid,25,?C
OC(=O)CCOC1=CC=CC2=C1C=CC=C2,3-(1-NAPHTHALENYLOXY)-PROPANOIC ACID,4,Log unit,O=C(O)CCOc1c2c(ccc1)cccc2,aliph. carboxylic acid,,-
OC(=O)CC1=C(N=C(S1)C1=CC=CC=C1)C1=CC=C(Cl)C=C1,FENTIAZAC,3.6,Log unit,O=C(O)Cc1c(c2ccc(Cl)cc2)nc(s1)c1ccccc1,aliph. carboxylic acid,,-
OC(=O)CC1=C(I)C=CC=C1,2-IODO-BENZENEACETIC ACID,4.04,Log unit,O=C(O)Cc1c(I)cccc1,aliph. carboxylic acid,25,?C
CC1=CC=CC(Cl)=C1C(O)=O,2-CHLORO-6-METHYL-BENZOIC ACID,2.75,Log unit,O=C(O)c1c(Cl)cccc1C,benzoic acid (ortho subs.),20,?C
CC(C)(C)C1=CC=C(CC(O)=O)C=C1,"4-(1,1-DIMETHYLETHYL)-BENZENEACETIC ACID",4.42,Log unit,O=C(O)Cc1ccc(cc1)C(C)(C)C,aliph. carboxylic acid,25,?C
OC(=O)CC1=CN(N=C1C1=CC=C(Cl)C=C1)C1=CC=CC=C1,Lonazolac,4.3,Log unit,O=C(O)Cc1c(c2ccc(Cl)cc2)nn(c1)c1ccccc1,aliph. carboxylic acid,,-
OC(=O)COC1=CC(=C(Cl)C=C1)[N+]([O-])=O,4-chloro-3-nitro-phenoxyacetic acid,2.96,Log unit,O=C(O)COc1ccc(c([N+](=O)[O-])c1)Cl,aliph. carboxylic acid,25,?C
OC(=O)C1CC(=O)C(=C(O)C2CC2)C(=O)C1,TRINEXAPAC,5.32,Log unit,O=C(O)C1CC(=O)C(=C(O)C2CC2)C(=O)C1,aliph. carboxylic acid,,-