Smiles,Name,pKa,pKa Unit,Ionizable center smiles,IC group,Temperature,Temperature Unit
C[NH2+]CC(O)C1=CC=C(O)C=C1,1-hydroxy-4-(1-hydroxy-2-methylamino)ethylbenzene,8.76,Log unit,Oc1ccc(C(O)C[NH2+]C)cc1,1,25,?C
CNCC(O)C1=CC=C(O)C=C1,1-hydroxy-4-(1-hydroxy-2-methylamino)ethylbenzene,9.7,Log unit,Oc1ccc(C(O)CNC)cc1,nr2,25,?C
COC1=C(O)C(CN)=CC=C1,2-hydroxy-3-methoxy-benzylamine,11.06,Log unit,NCc1cccc(OC)c1O,oh,25,?C
NCC1=CC=C(C=C1)N(=O)=O,4-Nitrobenzylamine,8.505,Log unit,NCc1ccc(cc1)N(=O)=O,nr2,25,?C
NCC1=CC=CC=C1S(N)(=O)=O,2-sulphamoylbenzylamine,8.53,Log unit,NCc1c(S(=O)(=O)N)cccc1,4,25,?C
NCC1=CC(=CC=C1)S(N)(=O)=O,3-sulphamoylbenzylamine,8.55,Log unit,NCc1cc(S(=O)(=O)N)ccc1,4,25,?C
NCC1=CC=C(C=C1)S(N)(=O)=O,4-sulphamoylbenzylamine,8.35,Log unit,NCc1ccc(S(=O)(=O)N)cc1,4,25,?C
NC1=CC=C(C=C1)C1=CC=C(C=C1)N(=O)=O,4-amino-4'-nitropiphenyl,3.765,Log unit,Nc1ccc(cc1)c1ccc(N(=O)=O)cc1,nr2,25,?C
CC1=CC=CC(N)=C1C1=C(N)C=CC=C1C,"2,2'-diamino-6,6'-dimethylbiphenyl",3.7,Log unit,Nc1c(c2c(cccc2C)N)c(ccc1)C,nr2,25,?C
NC1=CC(O)=C(O)C2=CC=CC=C12,"1-amino-3,4-dihydroxynaphthalene",9.32,Log unit,Oc1c(c2ccccc2c(c1)N)O,oh,25,?C
NC1=C(O)C2=CC=CC=C2C(O)=C1,"2-amino-1,4-dihydroxynaphthalene",9.57,Log unit,Oc1c2ccccc2c(O)c(N)c1,2,25,?C
NC1=CC=C(C2=CC=CC=C12)N(=O)=O,1-amino-4-nitro-naphthalene,0.54,Log unit,Nc1c2ccccc2c(cc1)N(=O)=O,nr2,25,?C
NC1=CC2=CC=CC=C2C(=C1)N(=O)=O,2-amino-4-nitro-naphthalene,2.43,Log unit,Nc1cc2ccccc2c(c1)N(=O)=O,nr2,25,?C
NC1=CC2=C(C=C1)C(=CC=C2)N(=O)=O,2-amino-5-nitro-naphthalene,3.01,Log unit,Nc1ccc2c(cccc2N(=O)=O)c1,nr2,25,?C
NC1=CC2=C(C=C1)C=C(C=C2)N(=O)=O,2-amino-6-nitro-naphthalene,2.62,Log unit,Nc1ccc2cc(ccc2c1)N(=O)=O,nr2,25,?C
NC1=CC2=C(C=C1)C=CC(=C2)N(=O)=O,2-amino-7-nitro-naphthalene,3.1,Log unit,Nc1ccc2ccc(N(=O)=O)cc2c1,nr2,25,?C
NC1=CC2=C(C=CC=C2N(=O)=O)C=C1,2-amino-8-nitronaphthalene,2.73,Log unit,Nc1ccc2cccc(c2c1)N(=O)=O,nr2,25,?C
NC1=C(N)C2=CC=CC=C2C=C1,"1,2-Diaminonaphthalene",4.76,Log unit,Nc1c(c2ccccc2cc1)N,4,25,?C
NC1=CC(N)=C(O)C2=CC=CC=C12,"1,3-diamino-4-hydroxynaphthalene",4.7,Log unit,Nc1c2ccccc2c(O)c(N)c1,nr2,25,?C
NC1=CC([NH2+])=C([O-])C2=CC=CC=C12,"1,3-diamino-4-hydroxynaphthalene",3.14,Log unit,Nc1c2ccccc2c([O-])c([NH+])c1,nr2,25,?C
NCCNCC1=CC=CO1,2-(2-aminoethylaminomethyl)furan,9.795,Log unit,NCCNCc1occc1,4,25,?C
[NH2+]CCNCC1=CC=CO1,2-(2-aminoethylaminomethyl)furan,6.56,Log unit,N(Cc1occc1)CC[NH2+],nr2,25,?C
NCCNCC1=COC=C1,3-(2-aminoethylaminomethyl)furan,9.86,Log unit,NCCNCc1cocc1,3,25,?C
C(C[N+]1CCCCC1)N1CCCCC1,1-(2-piperidino)ethylpiperidine,6.55,Log unit,N1(CC[N+]2CCCCC2)CCCCC1,nr2,25,?C
N1C=CC=C1,pyrrole,-3.8,Log unit,[nH]1cccc1,nr2,25,?C
N1C=CC=C1,pyrrole,16.8,Log unit,[nH]1cccc1,nr2_a,25,?C
CC1=CC=C(C)N1,"Pyrrole,2,5-dimethyl-",-0.71,Log unit,[nH]1c(ccc1C)C,nr2,25,?C
NC1CC(=O)NC1=O,"Pyrrolidien,3-amino-2,5-dioxo-:",5.9,Log unit,NC1CC(=O)NC1=O,4,25,?C
OC(CN1CCCC1)C[N+]1CCCC1,"Pyrrolidine,1(2-hydroxy-3-pyrrolidine-1-yl)propyl-:",8.05,Log unit,N1(CCCC1)CC(O)C[N+]1CCCC1,nr2,25,?C
C[N+]1CCCC1C1=CN=CC=C1,"Pyrrolidine, 1-methyl-2-(3-pyridy)-:",3.4,Log unit,n1cccc(c1)C1[N+](CCC1)C,n,25,?C
NCCNCC1=CC=CS1,"Thiophene, 2-(2-aminoethylaminomethyl)-:",9.7,Log unit,NCCNCc1sccc1,4,25,?C
[NH2+]CCNCC1=CC=CS1,"Thiophene, 2-(2-aminoethylaminomethyl)-:",6.3,Log unit,N(Cc1sccc1)CC[NH2+],nr2,25,?C
NCCNCC1=CC=CS1,"Thiophene, 2-(2-aminoethylaminomethyl)-:",9.8,Log unit,NCCNCc1sccc1,4,25,?C
CC1=NOC=C1,"Isoxsazole, 3-methyl-",-1,Log unit,n1occc1C,nethR,25,?C
CC1=C(C)C(C)=NO1,"Isoxazoline, 3,4,5-trimethyl-",-1,Log unit,n1oc(C)c(c1C)C,nethR,25,?C
NCCN1CCOCC1,"Morpholine, N-(2-amino)ethyl-",9.45,Log unit,NCCN1CCOCC1,3,25,?C
[NH2+]CCN1CCOCC1,"Morpholine, N-(2-amino)ethyl-",4.84,Log unit,N1(CCOCC1)CC[NH2+],nr2,25,?C
CC(O)CN(CCN1CCOCC1)CC(C)O,"Morplholine, N-[2-(dis-2-hydroxypropyl)aminoethyl]-",7.9,Log unit,N(CCN1CCOCC1)(CC(O)C)CC(O)C,4,25,?C
CC(O)CN(CCCN1CCOCC1)CC(C)O,"Mokrpholine, N-[3-(bis-2-hydroxpropyl)aminopropyl]-",8.4,Log unit,N(CCCN1CCOCC1)(CC(O)C)CC(O)C,4,25,?C
CC(O)C[N+](CCCN1CCOCC1)CC(C)O,"Mokrpholine, N-[3-(bis-2-hydroxpropyl)aminopropyl]-",5.5,Log unit,N1(CCOCC1)CCC[N+](CC(O)C)CC(O)C,nr2,25,?C
OC(CN1CCOCC1)C[N+]1CCOCC1,"Morpholine, N-(2-hydroxy-3-morpholin)propyl-:",5.3,Log unit,N1(CCOCC1)CC(O)C[N+]1CCOCC1,nr2,25,?C
CC1=NCCO1,"Oxazoline, 2-methylo-:",5.51,Log unit,N1=C(OCC1)C,nethR,25,?C
CC(=O)N1CCNCC1,"Piperazine, 1-acetyl-",7.94,Log unit,N1CCN(C(=O)C)CC1,2,25,?C
NCCN1CCNCC1,"Piperazine, N-2-aminoethyl-",9.4,Log unit,NCCN1CCNCC1,5,25,?C
[NH2+]CCN1CCNCC1,"Piperazine, N-2-aminoethyl-",8.37,Log unit,N1CCN(CC[NH2+])CC1,2,25,?C
CN1CCN(CC1)C(=O)C1=CC=CC=C1,"Piperazine, 1-benzoyl-4-methyl-",6.78,Log unit,N1(CCN(C(=O)c2ccccc2)CC1)C,2,25,?C
CN1CCN(CC1)C(C1=CC=CC=C1)C1=CC=C(Br)C=C1,"Piperazine, 1-(4-dromobenzhydryl)-4-methyl-:",7.97,Log unit,N1(CCN(C(c2ccc(Br)cc2)c2ccccc2)CC1)C,2,25,?C
CN1CCN(CC1)C(C1=CC=CC=C1)C1=CC(Cl)=CC=C1,"Piperazine, 1-(3-chlorobenzhydry)-4-methylo-",8.1,Log unit,N1(CCN(C(c2cc(Cl)ccc2)c2ccccc2)CC1)C,2,25,?C
CN1CCN(CC1)C(C1=CC=CC=C1)C1=CC=C(Cl)C=C1,"Piperazine, 1-(4-chlorobenzhyldryl)-4-methyl-",7.98,Log unit,N1(CCN(C(c2ccc(Cl)cc2)c2ccccc2)CC1)C,2,25,?C
CN1CCN(CC1)C(C1=CC=CC=C1)C1=CC=CC=C1,"Piperazine, 1-diphenylmethyl-4-methyl-",8.16,Log unit,N1(C(c2ccccc2)c2ccccc2)CCN(C)CC1,2,25,?C
CN1CCN(CC1)C(C1=CC=C(F)C=C1)C1=CC=C(F)C=C1,"Piperazine, 1-(4-fluorobenzhydry)-4-methyl-",8.23,Log unit,N1(CCN(C(c2ccc(F)cc2)c2ccc(F)cc2)CC1)C,2,25,?C
N1C=CC=N1,"Pyrazole,",2.48,Log unit,n1[nH]ccc1,nethR,25,?C
NCCC1=NNC=C1,"Pyrazole,3-(2-aminoethyl)-",9.61,Log unit,NCCc1n[nH]cc1,4,25,?C
CC1=NNC=C1,"Pyrazole,3-methyl-",3.56,Log unit,n1[nH]ccc1C,nethR,25,?C
CN1C=CC(=O)C=N1,"Pyridazine, 1,4-dihydro-1-methyl-4-oxo-:",1.02,Log unit,n1n(C)ccc(=O)c1,nethR,25,?C
N1C=CC2=C1C=CC=C2,indole,-2.4,Log unit,[nH]1ccc2ccccc12,nr2,25,?C
N1C=CC2=C1C=CC=C2,indole,16.5,Log unit,[nH]1ccc2ccccc12,nr2_a,25,?C
NCCC1=CNC2=C1C=CC=C2,3-(2-aminoethyl)indole,10.2,Log unit,NCCc1c2ccccc2[nH]c1,3,25,?C
COC1=CC2=C(NC=C2CC(C)N)C=C1,3-(2-aminopropyl)-5-methoxyindole,10.3,Log unit,NC(Cc1c2cc(ccc2[nH]c1)OC)C,3,25,?C
[NH2+]CCC1=CNC2=C1C=C(O)C=C2,3-(2-aminoethyl)-5-hydroxyindole,10,Log unit,Oc1ccc2[nH]cc(c2c1)CC[NH2+],oh,25,?C
NCCC1=CNC2=C1C=C([O-])C=C2,3-(2-aminoethyl)-5-hydroxyindole,11.1,Log unit,NCCc1c2cc(ccc2[nH]c1)[O-],3,25,?C
CC1=CNC2=C1C=CC=C2,3-methylindole,16.6,Log unit,[nH]1cc(c2ccccc12)C,nr2_a,25,?C
BrC1=CC2=C(NC=C2)C=C1,5-Bromoindole,16.13,Log unit,[nH]1ccc2cc(ccc12)Br,nr2_a,25,?C
FC1=CC=CC2=C1C=CN2,4-Fluoroindole,16.3,Log unit,[nH]1ccc2c(cccc12)F,nr2_a,25,?C
FC1=CC2=C(NC=C2)C=C1,5-Fluoroindole,16.3,Log unit,[nH]1ccc2cc(ccc12)F,nr2_a,25,?C
O=N(=O)C1=CNC2=C1C=CC=C2,3-nitroindole,10.12,Log unit,[nH]1cc(c2ccccc12)N(=O)=O,nr2_a,25,?C
O=N(=O)C1=CC2=C(NC=C2)C=C1,5-Nitroindole,14.75,Log unit,[nH]1ccc2cc(ccc12)N(=O)=O,nr2_a,25,?C
COC1=C(N)C2=C(C(N)=C1)C(=O)C1=CC=CC=C1C2=O,Disperse Red 15,0.86,Log unit,Nc1cc(c(N)c2C(=O)c3ccccc3C(=O)c12)OC,4,25,?C
CC(N)C[NH2+],"1,2-diamino-propane",7.1,Log unit,NC(C[NH2+])C,nr2,25,?C
NCCC[NH2+],"1,3-diamino-propane",8.6,Log unit,NCCC[NH2+],nr2,25,?C
NCC(CN)C[NH2+],"1,3-DIAMINO-2-AMINOMETHYLPROPANE",8.86,Log unit,NCC(C[NH2+])CN,nr2,25,?C
NCC(C[NH2+])C[NH2+],"1,3-DIAMINO-2-AMINOMETHYLPROPANE",7.36,Log unit,NCC(C[NH2+])C[NH2+],nr2,25,?C
CC(C)(CN)C[NH2+],"1,3-diamino-2,2-dimethylpropane",8.5,Log unit,NCC(C[NH2+])(C)C,nr2,25,?C
NCC(O)C[NH2+],"1,3-Diamino-2-hydroxypropane",8,Log unit,NCC(O)C[NH2+],nr2,25,?C
CC(C)(N)CN,"1,2-Diamino-2-methylpropane",10,Log unit,NC(CN)(C)C,4,25,?C
CC(C)([NH2+])CN,"1,2-Diamino-2-methylpropane",6.79,Log unit,NCC([NH2+])(C)C,nr2,25,?C
CCN(CC)CCC(C(=N)NC1=CC=CC=C1)C1=CC=CC=C1,1-diethylamino-3-phenyl-3-phenylamidinopropane,9.68,Log unit,N(CCC(C(=N)Nc1ccccc1)c1ccccc1)(CC)CC,3,25,?C
CC[N+](CC)CCC(C(=N)NC1=CC=CC=C1)C1=CC=CC=C1,1-diethylamino-3-phenyl-3-phenylamidinopropane,7.18,Log unit,N=C(Nc1ccccc1)C(c1ccccc1)CC[N+](CC)CC,neth,25,?C
CN(C)CCCC(=O)C(CCN(C)C)C1=CC=CC=C1,1-dimethylamino-3-(3-dimethylamino-1-phenyl)propylcarbonylpropane,8.9,Log unit,N(CCC(c1ccccc1)C(=O)CCCN(C)C)(C)C,nr2,25,?C
CN(C)CCCN(C)CCCN(C)C,1-dimethylamino-3-(3-dimethylamino)propylmethylaminopropane,9.7,Log unit,N(CCCN(CCCN(C)C)C)(C)C,nr2,25,?C
CN(C)CCCN(C)CCC[N+](C)C,1-dimethylamino-3-(3-dimethylamino)propylmethylaminopropane,9.3,Log unit,N(CCC[N+](C)C)(C)CCCN(C)C,2,25,?C
CN(CCC[N+](C)C)CCC[N+](C)C,1-dimethylamino-3-(3-dimethylamino)propylmethylaminopropane,6.4,Log unit,N(CCC[N+](C)C)(C)CCC[N+](C)C,nr2,25,?C
CN(C)CCC(C(=N)NC1=CC=CC=C1)C1=CC=CC=C1,1-dimethylamino-3-phenyl-3-phenylamidopropane,8.99,Log unit,N=C(Nc1ccccc1)C(c1ccccc1)CCN(C)C,3,25,?C
C[N+](C)CCC(C(=N)NC1=CC=CC=C1)C1=CC=CC=C1,1-dimethylamino-3-phenyl-3-phenylamidopropane,7.13,Log unit,N=C(Nc1ccccc1)C(c1ccccc1)CC[N+](C)C,neth,25,?C
NCC(N)CN,"1,2,3-triaminopropane",9.3,Log unit,NCC(N)CN,4,25,?C
NCC(N)C[NH2+],"1,2,3-triaminopropane",8.3,Log unit,NCC(C[NH2+])N,4,25,?C
NC(C[NH2+])C[NH2+],"1,2,3-triaminopropane",3.99,Log unit,NC(C[NH2+])C[NH2+],nr2,25,?C
CCN(CC)CCCCN,1-amino-4-diethylaminobutane,10.3,Log unit,N(CCCCN)(CC)CC,nr2,25,?C
CC(=NO)C(C)(C)N,2-amino-3-hydroxyimino-2-methylbutane,9.12,Log unit,ON=C(C)C(N)(C)C,nr2,25,?C
CCC(N)CN,"1,2-diaminobutane",9.388,Log unit,NC(CN)CC,4,25,?C
CC(N)CCN,"1,3-Diaminobutane",10.2,Log unit,NC(CCN)C,3,25,?C
CC([NH2+])CCN,"1,3-Diaminobutane",8.72,Log unit,NCCC([NH2+])C,nr2,25,?C
NCCCC[NH2+],"1,4-diaminobutane",9.65,Log unit,NCCCC[NH2+],nr2,25,?C
CC(N)C(C)[NH2+],"2,3-diaminobutane",6.92,Log unit,NC(C([NH2+])C)C,nr2,25,?C
CC(C)(N)C(C)(C)[NH2+],"2,3-diamino-2,3-dimethylbutane",6.9,Log unit,NC(C([NH2+])(C)C)(C)C,nr2,25,?C
CCC(N)(CC)CN,"1,2-diamino-2-ethylbutane",10.08,Log unit,NC(CN)(CC)CC,4,25,?C
CCC([NH2+])(CC)CN,"1,2-diamino-2-ethylbutane",6.62,Log unit,NCC([NH2+])(CC)CC,nr2,25,?C
CCN(CC)CCCC(C)N,2-Amino-5-diethylaminopentane,10.1,Log unit,N(CCCC(N)C)(CC)CC,2,25,?C
CCN(CC)CCCC(C)[NH2+],2-Amino-5-diethylaminopentane,9.55,Log unit,N(CCCC([NH2+])C)(CC)CC,nr2,25,?C
NCCCCC[NH2+],"1,5-diamino-pentane",9.43,Log unit,NCCCCC[NH2+],nr2,25,?C
CCC(C)CC(C)N,2-Amino-4-methylhexane,10.54,Log unit,NC(C)CC(C)CC,2,25,?C
CC(C)(C)NCCCCCCNC(C)(C)C,"1,6-bis-t-butylaminohexane",10.7,Log unit,N(CCCCCCNC(C)(C)C)C(C)(C)C,nr2,25,?C
NCCCCCC[NH2+],"1,6-Diaminohexane",10.1,Log unit,NCCCCCC[NH2+],nr2,25,?C
CC(=[N+]O)C(C)(C)CCCCCN,"1-amino-7-hydroxyimino-6,6-dimethyloctane",9.12,Log unit,NCCCCCC(C(=[N+]O)C)(C)C,nr2,25,?C
NCCCCCCCC[NH2+],"1,8-diaminoocatane",10.4,Log unit,NCCCCCCCC[NH2+],nr2,25,?C
CC(=NO)C(C)(C)C(N)C(N)C(C)(C)C(C)=NO,"4,5-diamino-2,7-bishydroxyimino-3,3,6,6-tetramethyloctane",8.04,Log unit,NC(C(C(C(=NO)C)(C)C)N)C(C(=NO)C)(C)C,nr2,25,?C
CC(=NO)C(C)(C)C(N)C([NH2+])C(C)(C)C(C)=NO,"4,5-diamino-2,7-bishydroxyimino-3,3,6,6-tetramethyloctane",5.88,Log unit,N(=C(C)C(C)(C)C([NH2+])C(N)C(C(=NO)C)(C)C)O,4,25,?C
CC(=O)C1=CC=C(SC2=CC=C(N)C=C2)C=C1,4-(p-acetyl)phenylthioaniline,3.31,Log unit,Nc1ccc(cc1)Sc1ccc(C(=O)C)cc1,2,25,?C
NC1=CC=CC=C1[NH2+],2-amino-aniline,1.6,Log unit,Nc1ccccc1[NH+],nr2,25,?C
NC1=CC=C(Br)C=C1N,2-amino-4-bromoaniline,3.675,Log unit,Nc1ccc(Br)cc1N,3,25,?C
NC1=CC=C(Cl)C=C1N,2-Amino-4-chloroaniline,3.75,Log unit,Nc1ccc(Cl)cc1N,3,25,?C
NC1=C(N)C=C(C=C1)C#N,2-amino-4-cyanoaniline,2.805,Log unit,Nc1c(ccc(c1)C#N)N,4,25,?C
CCOC1=CC(N)=C(N)C=C1,2-amino-4-ethoxyaniline,4.77,Log unit,Nc1ccc(cc1N)OCC,4,25,?C
NC1=CC=C(I)C=C1N,2-amino-4-iodoaniline,3.625,Log unit,Nc1ccc(I)cc1N,3,25,?C
COC1=CC(N)=C(N)C=C1,2-amino-4-methoxyaniline,4.795,Log unit,Nc1ccc(cc1N)OC,3,25,?C
CC1=CC(N)=C(N)C=C1,2-amino-4-methylaniline,4.61,Log unit,Nc1ccc(cc1N)C,3,25,?C
CC1=CC(N)=C([NH2+])C=C1,2-amino-4-methylaniline,0.98,Log unit,Nc1c(ccc(c1)C)[NH+],nr2,25,?C
NC1=C(N)C=C(C=C1)N(=O)=O,2-AMINO-4-NITROANILINE,2.61,Log unit,Nc1c(ccc(c1)N(=O)=O)N,3,25,?C
NC1=CC=CC([NH2+])=C1,3-amino-aniline,2.7,Log unit,Nc1cccc(c1)[NH+],nr2,25,?C
NC1=CC=C([NH2+])C=C1,4-amino-aniline,3.41,Log unit,Nc1ccc(cc1)[NH+],nr2,25,?C
NC1=CC=C(C=C1)C(=O)C1=CC=C(N)C=C1,4-(p-aminobenzoyl)-aniline,2.932,Log unit,Nc1ccc(cc1)C(=O)c1ccc(N)cc1,nr2,25,?C
NC1=CC=C(C=C1)C(=O)C1=CC=C([NH2+])C=C1,4-(p-aminobenzoyl)-aniline,1.4,Log unit,Nc1ccc(cc1)C(=O)c1ccc([NH+])cc1,nr2,25,?C
NC1=CC=C(O)C(N)=C1O,"3-amino-2,6-dihydroxy-aniline",9.3,Log unit,Oc1c(N)c(ccc1N)O,1,25,?C
NC1=CC=C(O)C(N)=C1[O-],"3-amino-2,6-dihydroxy-aniline",11.5,Log unit,[O-]c1c(N)c(ccc1N)O,oh,25,?C
NC1=CC=C(O)C(N)=C1O,"3-amino-2,6-dihydroxy-aniline",5.6,Log unit,Nc1c(c(N)c(cc1)O)O,6,25,?C
NC1=C(O)C([NH2+])=CC=C1O,"3-amino-2,6-dihydroxy-aniline",2.9,Log unit,Nc1c(O)c([NH+])ccc1O,4,25,?C
NC1=C(O)C([NH2+])=CC=C1,3-amino-2-hydroxyaniline,3,Log unit,Nc1cccc(c1O)[NH+],nr2,25,?C
NC1=CC(N)=C(O)C=C1,3-amino-4-hydroxy-aniline,5.7,Log unit,Nc1ccc(O)c(N)c1,5,25,?C
NC1=C(O)C=CC([NH2+])=C1,3-amino-4-hydroxy-aniline,3.1,Log unit,Nc1c(ccc(c1)[NH+])O,nr2,25,?C
NC1=CC=C(C=C1)S(=O)(=O)C1=CC=C([NH2+])C=C1,4-(4-amino)phenylsulphonylaniline,1.6,Log unit,Nc1ccc(S(=O)(=O)c2ccc(cc2)[NH+])cc1,nr2,25,?C
NC1=CC(=CC=C1Br)N(=O)=O,2-Bromo-5-nitroaniline,0.52,Log unit,Nc1c(Br)ccc(N(=O)=O)c1,nr2,25,?C
NC1=CC(Br)=CC=C1N(=O)=O,5-bromo-2-nitroaniline,-1.48,Log unit,Nc1cc(Br)ccc1N(=O)=O,nr2,25,?C
NC1=C(C(Br)=C(C=C1N(=O)=O)N(=O)=O)N(=O)=O,"3-bromo-2,4,6-trinitroaniline",-9.58,Log unit,Nc1c(c(Br)c(cc1N(=O)=O)N(=O)=O)N(=O)=O,nr2,25,?C
CCCCNC1=CC=C(C=C1)C(=O)OCCN(C)C,N-butyl-4-(2-dimethylaminoethoxycarbonyl)aniline,8.2,Log unit,N(CCOC(=O)c1ccc(cc1)NCCCC)(C)C,2,25,?C
NC1=CC=C(C=C1Cl)N(=O)=O,2-Chloro-4-nitroaniline,-0.94,Log unit,Nc1c(Cl)cc(cc1)N(=O)=O,nr2,25,?C
NC1=CC(=CC=C1Cl)N(=O)=O,2-chloro-5-nitroaniline,0.64,Log unit,Nc1c(Cl)ccc(N(=O)=O)c1,nr2,25,?C
NC1=C(C(Cl)=C(C=C1N(=O)=O)N(=O)=O)N(=O)=O,"3-chloro-2,4,6-trinitroaniline",-9.7,Log unit,Nc1c(c(Cl)c(cc1N(=O)=O)N(=O)=O)N(=O)=O,nr2,25,?C
NC1=CC(Cl)=CC=C1N(=O)=O,5-chloro-2-nitro-aniline,-1.52,Log unit,Nc1cc(Cl)ccc1N(=O)=O,nr2,25,?C
NC1=CC(=CC(=C1)N(=O)=O)C#N,5-cyano-3-nitroaniline,0.46,Log unit,Nc1cc(cc(c1)N(=O)=O)C#N,nr2,25,?C
NC1=CC(N)=C(N)C=C1,"2,4-diamino-aniline",6.1,Log unit,Nc1ccc(N)c(N)c1,6,25,?C
NC1=C(N)C=C([NH2+])C=C1,"2,4-diamino-aniline",3.7,Log unit,Nc1ccc(cc1N)[NH+],3,25,?C
NC1=CC(N)=C(O)C(N)=C1O,"3,5-diamino-2,4-dihydroxy-aniline",5.8,Log unit,Nc1cc(c(O)c(c1O)N)N,6,25,?C
NC1=C(O)C(N)=C(O)C([NH2+])=C1,"3,5-diamino-2,4-dihydroxy-aniline",3.6,Log unit,Nc1c(O)c(cc([NH+])c1O)N,5,25,?C
NC1=C(O)C([NH2+])=C(O)C([NH2+])=C1,"3,5-diamino-2,4-dihydroxy-aniline",1.2,Log unit,Nc1c(O)c(c(c(c1)[NH+])O)[NH+],nr2,25,?C
NC1=CC(N)=C(O)C(N)=C1O,"3,5-diamino-2,4-dihydroxy-aniline",10.1,Log unit,Oc1c(cc(N)c(c1N)O)N,1,25,?C
NC1=CC(N)=C([O-])C(N)=C1O,"3,5-diamino-2,4-dihydroxy-aniline",11.9,Log unit,[O-]c1c(cc(N)c(c1N)O)N,1,25,?C
NC1=CC(N)=C(O)C(N)=C1,"3,5-diamino-2-hydroxy-aniline",6,Log unit,Nc1cc(N)c(c(c1)N)O,6,25,?C
NC1=CC([NH2+])=CC(N)=C1O,"3,5-diamino-2-hydroxy-aniline",2.8,Log unit,Nc1c(c(N)cc(c1)[NH+])O,nr2,25,?C
NC1=C(O)C([NH2+])=CC([NH2+])=C1,"3,5-diamino-2-hydroxy-aniline",1.3,Log unit,Nc1c(O)c([NH+])cc([NH+])c1,nr2,25,?C
NC1=CC(N)=C(O)C([NH2+])=C1,"3,5-diamino-2-hydroxy-aniline",3.1,Log unit,Nc1cc(cc([NH+])c1O)N,4,25,?C
CCCCN(CCCC)CCOC(=O)C1=CC=C(N)C=C1,4-[3-(dibutylamino)propoxycarbonyl]aniline,8.96,Log unit,N(CCOC(=O)c1ccc(cc1)N)(CCCC)CCCC,2,25,?C
NC1=CC(Cl)=C(C=C1Cl)N(=O)=O,"2,5-dichloro-4-nitro",-1.74,Log unit,Nc1c(Cl)cc(c(Cl)c1)N(=O)=O,nr2,25,?C
NC1=C(Cl)C=C(C=C1Cl)N(=O)=O,"2,6-dichloro-4-nitro-aniline",-2.55,Log unit,Nc1c(Cl)cc(cc1Cl)N(=O)=O,nr2,25,?C
CCN(CC)C1=C(C=C(C=C1)N(=O)=O)N(=O)=O,"N,N-diethyl-2,4-dinitroaniline",0.195,Log unit,N(c1ccc(cc1N(=O)=O)N(=O)=O)(CC)CC,nr2,25,?C
CN(C)C1=CC=CC(=C1)N(=O)=O,"N,N-Dimethyl-3-nitroaniline",2.64,Log unit,N(c1cccc(c1)N(=O)=O)(C)C,nr2,25,?C
CC1=C(N)C=CC(=C1C)N(=O)=O,"2,3-dimethyl-4-nitro-aniline",1.96,Log unit,Nc1ccc(c(C)c1C)N(=O)=O,nr2,25,?C
CN(C)C1=C(C=C(C=C1N(=O)=O)N(=O)=O)N(=O)=O,"N,N-Dimethyl-2,4,6-trinitroaniline",-4.915,Log unit,N(c1c(cc(cc1N(=O)=O)N(=O)=O)N(=O)=O)(C)C,nr2,25,?C
NC1=C(C=C(C=C1)N(=O)=O)N(=O)=O,"2,4-dinitro-aniline",-4.475,Log unit,Nc1ccc(cc1N(=O)=O)N(=O)=O,nr2,25,?C
NC1=CC(=C(C=C1)N(=O)=O)N(=O)=O,"3,4-dinitro-aniline",-1.2,Log unit,Nc1ccc(N(=O)=O)c(N(=O)=O)c1,nr2,25,?C
NC1=CC(=CC(=C1)N(=O)=O)N(=O)=O,"3,5-dinitro-aniline",0.245,Log unit,Nc1cc(cc(c1)N(=O)=O)N(=O)=O,nr2,25,?C
CCOC(=O)C1=C(C=CC(N)=C1)N(=O)=O,3-ethoxycarbonyl-4-nitroaniline,-0.11,Log unit,Nc1ccc(N(=O)=O)c(C(=O)OCC)c1,nr2,25,?C
NC1=CC(=CC=C1F)N(=O)=O,2-Fluoro-5-nitroaniline,1.09,Log unit,Nc1c(F)ccc(N(=O)=O)c1,nr2,25,?C
COC1=C(O)C(CN)=CC=C1,1-hydroxy-2-methoxybenzylamine,8.7,Log unit,Oc1c(cccc1CN)OC,nr2,25,?C
COC1=C(O)C(CN)=CC=C1,1-hydroxy-2-methoxybenzylamine,10.5,Log unit,NCc1cccc(OC)c1O,oh,25,?C
NC1=CC(O)=CC=C1N(=O)=O,5-hydroxy-2-nitroaniline,-0.55,Log unit,Nc1cc(O)ccc1N(=O)=O,nr2,25,?C
COC1=CC(=CC(N)=C1)N(=O)=O,3-methoxy-5-nitroaniline,2.11,Log unit,Nc1cc(cc(c1)N(=O)=O)OC,nr2,25,?C
COC1=C(N)C=C(C=C1)N(=O)=O,2-METHOXY-5-NITROANILINE,2.49,Log unit,Nc1c(ccc(c1)N(=O)=O)OC,nr2,25,?C
COC1=C(C=C(N)C=C1)N(=O)=O,4-Methoxy-3-nitroaniline,3.36,Log unit,Nc1ccc(OC)c(N(=O)=O)c1,nr2,25,?C
[NH2+]CCCCCCCCCCP(O)([O-])=O,10-amino-n-decyllphosphonic acid,8,Log unit,OP(=O)([O-])CCCCCCCCCC[NH2+],po2h,25,?C
C[N+](C)C1=CC=C(C=C1)P(O)(O)=O,p-dimethylaminophenylphosphonic acid,2,Log unit,OP(=O)(O)c1ccc([N+](C)C)cc1,po2h,25,?C
OC(=O)C1=CC(=CC=C1)P(O)([O-])=O,benzoic acid-3-phosphonic acid,4.03,Log unit,OP(=O)([O-])c1cccc(c1)C(=O)O,co2h,25,?C
OP([O-])(=O)C1=CC=CC(=C1)C([O-])=O,benzoic acid-3-phosphonic acid,7.03,Log unit,[O-]C(=O)c1cc(P(=O)(O)[O-])ccc1,po2h,25,?C
C[N+](C)C1=CC=C(C=C1)P(O)=O,p-dimethylaminophenylphosphinic acid,2.1,Log unit,OP(=O)c1ccc([N+](C)C)cc1,po2h,25,?C
OC(=O)C[As](O)(O)=O,arson-acetic acid,3.2,Log unit,OC(=O)C[As](=O)(O)O,aso2h,25,?C
OC(=O)C[As](O)([O-])=O,arson-acetic acid,4.7,Log unit,[O-][As](=O)(O)CC(=O)O,co2h,25,?C
OC(=O)CCC[As](O)(O)=O,arson-butyric acid,3.3,Log unit,OC(=O)CCC[As](=O)(O)O,aso2h,25,?C
OC(=O)CCC[As](O)([O-])=O,arson-butyric acid,4.9,Log unit,[O-][As](=O)(O)CCCC(=O)O,co2h,25,?C
OC(=O)CCCC[As](O)([O-])=O,arson-valeric acid,4.88,Log unit,[O-][As](=O)(O)CCCCC(=O)O,co2h,25,?C
OC(=O)C(=C)[As](O)(O)=O,alpha-arson-acrylic acid,3.3,Log unit,OC(=O)C(=C)[As](=O)(O)O,aso2h,25,?C
OC(=O)C(=C)[As](O)([O-])=O,alpha-arson-acrylic acid,4.23,Log unit,[O-][As](=O)(O)C(=C)C(=O)O,co2h,25,?C
CC=C(C(O)=O)[As](O)(O)=O,alpha-arson-crotonic acid,3.65,Log unit,OC(=O)C(=CC)[As](=O)(O)O,aso2h,25,?C
CC=C(C(O)=O)[As](O)([O-])=O,alpha-arson-crotonic acid,4.6,Log unit,[O-][As](=O)(O)C(=CC)C(=O)O,co2h,25,?C
CC(=CC(O)=O)[As](O)(O)=O,beta-arson-crotonic acid,3.5,Log unit,OC(=O)C=C([As](=O)(O)O)C,aso2h,25,?C
NC1=C(C=CC=C1)[As](O)([O-])=O,o-Aminophenylarsonic acid,4.1,Log unit,[O-][As](=O)(O)c1c(N)cccc1,nr2,25,?C
NC1=CC=C(C=C1)[As](O)([O-])=O,p-Aminophenylarsonic acid,4.4,Log unit,[O-][As](=O)(O)c1ccc(N)cc1,nr2,25,?C
OC1=CC=C(C=C1)N=NC1=CC=C(C=C1)[As](O)([O-])=O,4-(4-hydrxyphenylazo)phenylarsonic acid,7.6,Log unit,Oc1ccc(N=Nc2ccc(cc2)[As](=O)(O)[O-])cc1,aso2h,25,?C
NCC(N)=O,C-amino-C-carbamoylmethane,7.94,Log unit,NCC(=O)N,4,25,?C
NCC(=O)NN,C-amino-C-hydrazinocarbonylmethane,7.69,Log unit,NCC(=O)NN,6,25,?C
[O-]S(=O)(=O)NS([O-])(=O)=O,182 Aminodisulphonic acid,8.5,Log unit,N(S(=O)(=O)[O-])S(=O)(=O)[O-],nr2,25,?C
CNCC(N)=O,C-carbamoyl-C-methylaminomethane,8.31,Log unit,N(CC(=O)N)C,4,25,?C
NNC(=O)CC#N,C-cyano-C-hydrazinocarbonylmethane,2.32,Log unit,NNC(=O)CC#N,4,25,?C
CNCC(=O)N(C)C,"N,N-dimethylcarbamoyl-C-methylaminomethane",8.82,Log unit,N(CC(=O)N(C)C)C,3,25,?C
CC(=O)NN,hydrazinocarbonylmethane,3.24,Log unit,NNC(=O)C,4,25,?C
CNCC(=O)NC,C-methylamino-(N-methyl)carbamoylmethane,8.24,Log unit,N(CC(=O)NC)C,4,25,?C
CC(=O)NCCN,1-acetamido-2-aminoethane,9.15,Log unit,NCCNC(=O)C,4,25,?C
NCCOCC[NH2+],1-amino-2-(2-amino)ethoxyethane,8.9,Log unit,NCCOCC[NH2+],nr2,25,?C
NCCNCCN,1-amino-2-(2-aminoethyl)aminoethane,9.7,Log unit,NCCNCCN,4,25,?C
NCCNCC[NH2+],1-amino-2-(2-aminoethyl)aminoethane,9.5,Log unit,NCCNCC[NH2+],4,25,?C
[NH2+]CCNCC[NH2+],1-amino-2-(2-aminoethyl)aminoethane,4.6,Log unit,N(CC[NH2+])CC[NH2+],nr2,25,?C
NCCNC(=O)C1=CC=CC=C1,1-amino-2-benzamidoethane,9.13,Log unit,NCCNC(=O)c1ccccc1,3,25,?C
NCCNCC1=CC=CC=C1,1-amino-2benzylaminoethane,9.6,Log unit,NCCNCc1ccccc1,3,25,?C