Smiles,Name,pKa,pKa Unit,Ionizable center smiles,IC group,Temperature,Temperature Unit
COC1=CC2=C(C=C1)C(Cl)=CC=N2,4-chloro-7-methoxyquinoline,4.32,Log unit,n1ccc(Cl)c2ccc(OC)cc12,n,25,?C
CC1=CC2=C(C=C1)N=CC=C2Cl,4-chloro-6-methylquinoline,3.96,Log unit,n1ccc(Cl)c2cc(ccc12)C,n,25,?C
CC1=CC2=C(C=C1)C(Cl)=CC=N2,4-chloro-7-methylquinoline,4,Log unit,n1ccc(Cl)c2ccc(C)cc12,n,25,?C
NC1=NC2=CC=CC=C2C(N)=C1,"2,4-diaminoquinoline",9.4,Log unit,n1c2ccccc2c(cc1N)N,n,25,?C
ClC1=CC=C2N=CC=C(Cl)C2=C1,"4,6-dichloroquinoline",2.81,Log unit,n1c2ccc(Cl)cc2c(Cl)cc1,n,25,?C
ClC1=CC=C2C(Cl)=CC=NC2=C1,"4,7-Dichloroquinoline",2.8,Log unit,n1c2cc(Cl)ccc2c(Cl)cc1,n,25,?C
OC1=C2N=CC=CC2=C(Cl)C=C1Cl,"5,7-Dichloro-8-hydroxyquinoline",7.62,Log unit,Oc1c(Cl)cc(Cl)c2cccnc12,oh,25,?C
OC1=C2N=CC=CC2=C(Cl)C=C1Cl,"5,7-Dichloro-8-hydroxyquinoline",2.89,Log unit,n1c2c(c(Cl)cc(Cl)c2ccc1)O,n,25,?C
CC1=CC2=CC=CC=C2N=C1C,"2,3-DIMETHYLQUINOLINE",4.94,Log unit,n1c2ccccc2cc(C)c1C,n,25,?C
CC1=CC2=C(C=C1)N=C(C)C=C2,"2,6-Dimethylquinoline",5.78,Log unit,n1c(ccc2c1ccc(C)c2)C,n,25,?C
CC1=NC2=C(O)C(=CC=C2C(C)=C1)S([O-])(=O)=O,"2,4-dimethyl-8-hydroxy-quinoline-7-sulfonic acid",10.14,Log unit,Oc1c(S(=O)(=O)[O-])ccc2c(cc(nc12)C)C,oh,25,?C
CSC1=CC=CC2=C1N=C(C)C=C2C,"2,4-dimethyl-8-methylthioquinoline",4.88,Log unit,n1c2c(SC)cccc2c(cc1C)C,n,25,?C
CSC1=CC(C)=CC2=C1N=CC=C2C,"4,6-dimethyl-8-methylthioquinoline",4.54,Log unit,n1c2c(SC)cc(cc2c(cc1)C)C,n,25,?C
FC1=CC2=C(C=CC=C2)N=C1,3-Fluoroquinoline,2.695,Log unit,n1cc(F)cc2c1cccc2,n,25,?C
FC1=CC=CC2=C1C=CC=N2,5-Fluoroquinoline,3.955,Log unit,n1cccc2c1cccc2F,n,25,?C
FC1=CC2=C(C=C1)N=CC=C2,6-Fluoroquinoline,4.28,Log unit,n1cccc2c1ccc(F)c2,n,25,?C
FC1=CC2=C(C=CC=N2)C=C1,7-Fluoroquinoline,4.31,Log unit,n1cccc2c1cc(F)cc2,n,25,?C
FC1=CC=CC2=C1N=CC=C2,8-FLUOROQUINOLINE,3.375,Log unit,n1cccc2c1c(F)ccc2,n,25,?C
FC1CCC(S)C2[NH2+]CCCC12,5-fluoro-8-mercaptoquinoline,1.97,Log unit,SC1[CH][CH]C(F)C2C1[NH2+][CH][CH][CH]2,sh,25,?C
FC1=CC=C([S-])C2=C1C=CC=N2,5-fluoro-8-mercaptoquinoline,7.44,Log unit,n1c2c([S-])ccc(F)c2ccc1,n,25,?C
NNC1=NC2=CC=CC=C2C=C1,2-Hydrazinoquinoline,7.82,Log unit,n1c2ccccc2ccc1NN,n,25,?C
NNC1=CC2=CC=CC=C2N=C1,3-hydrazinoquinoline,4.85,Log unit,n1c2ccccc2cc(NN)c1,n,25,?C
NNC1=CC=NC2=CC=CC=C12,4-hydrazinoquinoline,8.85,Log unit,n1c2ccccc2c(cc1)NN,n,25,?C
NNC1=CC=CC2=C1C=CC=N2,5-hydrazinoquinoline,5.36,Log unit,n1cccc2c1cccc2NN,n,25,?C
NNC1=CC2=C(C=C1)N=CC=C2,6-hydrazinoquinoline,5.5,Log unit,n1cccc2c1ccc(NN)c2,n,25,?C
NNC1=CC2=C(C=CC=N2)C=C1,7-hydrazinoquinoline,6.71,Log unit,n1cccc2c1cc(cc2)NN,n,25,?C
NNC1=CC=CC2=C1N=CC=C2,8-hydrazinoquinoline,5.27,Log unit,n1cccc2c1c(ccc2)NN,n,25,?C
CC1=CC(NN)=NC2=CC=CC=C12,2-hydrazino-4-methylquinoline,8.35,Log unit,n1c2ccccc2c(cc1NN)C,n,25,?C
[O-]C1=NC2=C(C=CC=C2)C=C1,2-Hydroxyquinoline,11.76,Log unit,n1c(ccc2c1cccc2)[O-],n,25,?C
OC1CCC2CCCCC2[NH2+]1,2-Hydroxyquinoline,-0.31,Log unit,OC1[NH2+]C2[CH][CH][CH][CH]C2[CH][CH]1,oh,25,?C
OC1=CC2=C(C=CC=C2)N=C1,3-Hydroxyquinoline,8.08,Log unit,Oc1cnc2ccccc2c1,oh,25,?C
[O-]C1=CC=NC2=C1C=CC=C2,4-Hydroxyquinoline,11.28,Log unit,n1ccc([O-])c2c1cccc2,n,25,?C
OC1CC[NH2+]C2CCCCC12,4-Hydroxyquinoline,2.2,Log unit,OC1[CH][CH][NH2+]C2[CH][CH][CH][CH]C12,oh,25,?C
OC1=CC=CC2=C1C=CC=N2,5-hydroxyquinoline,8.56,Log unit,Oc1c2c(nccc2)ccc1,oh,25,?C
OC1=CC2=C(C=C1)N=CC=C2,6-hydroxyquinoline,8.9,Log unit,Oc1ccc2ncccc2c1,oh,25,?C
OC1=CC2=C(C=CC=N2)C=C1,7-HYDROXYQUINOLINE,8.87,Log unit,Oc1cc2ncccc2cc1,oh,25,?C
OC1=CC=CC2=C1N=CC=C2,8-HYDROXYQUINOLINE,9.81,Log unit,Oc1c2ncccc2ccc1,oh,25,?C
CC1=CC2=C(N=C1C)C(O)=CC=C2,"8-hydroxy-2,3-dimethylquinoline",5.87,Log unit,n1c(c(cc2c1c(ccc2)O)C)C,n,25,?C
CC1=CC2=C(N=C1C)C(O)=CC=C2,"8-hydroxy-2,3-dimethylquinoline",10.2,Log unit,Oc1c2nc(c(cc2ccc1)C)C,oh,25,?C
CC1=NC2=C(C=CC=C2O)C(C)=C1,"8-hydroxy-2,4-dimethylquinoline",6.2,Log unit,n1c(cc(C)c2c1c(ccc2)O)C,n,25,?C
CC1=NC2=C(C=CC=C2O)C(C)=C1,"8-hydroxy-2,4-dimethylquinoline",10.6,Log unit,Oc1c2nc(cc(C)c2ccc1)C,oh,25,?C
CC1=C(C)C2=C(N=C1)C(O)=CC=C2,"8-hydroxy-3,4-dimethylquinoline",10.05,Log unit,Oc1c2ncc(c(C)c2ccc1)C,oh,25,?C
CC1=NC2=C(O)C(=CC=C2C(C)=C1)S([O-])(=O)=O,"8-hydroxy-2,4-dimethyl-7(?)-sulphoquinoline",5.2,Log unit,n1c2c(c(S(=O)(=O)[O-])ccc2c(cc1C)C)O,n,25,?C
OC1=CC=C(I)C2=C1N=CC=C2,8-hydroxy-5-iodoquinoline,8.65,Log unit,Oc1ccc(I)c2cccnc12,oh,25,?C
OC1=CC=C(I)C2=C1N=CC=C2,8-hydroxy-5-iodoquinoline,3.48,Log unit,n1c2c(c(I)ccc2O)ccc1,n,25,?C
OC1=C2N=CC=CC2=C(C=C1I)S([O-])(=O)=O,8-hydroxy-7-iodo-5-sulphoquinoline,7.15,Log unit,Oc1c(I)cc(S(=O)(=O)[O-])c2cccnc12,oh,25,?C
CC1=NC2=C(C=CC=C2O)C=C1,8-HYDROXY-2-METHYLQUINOLINE,10.3,Log unit,Oc1c2nc(ccc2ccc1)C,oh,25,?C
CC1=NC2=C(C=CC=C2O)C=C1,8-HYDROXY-2-METHYLQUINOLINE,5.55,Log unit,n1c(ccc2c1c(ccc2)O)C,n,25,?C
CC1=CC2=C(N=C1)C(O)=CC=C2,8-hydroxyl-3-methylquinoline,9.74,Log unit,Oc1c2ncc(cc2ccc1)C,oh,25,?C
CC1=CC2=C(N=C1)C(O)=CC=C2,8-hydroxyl-3-methylquinoline,4.94,Log unit,n1cc(cc2c1c(ccc2)O)C,n,25,?C
CC1=CC=NC2=C1C=CC=C2O,8-HYDROXY-4-METHYLQUINOLINE,10,Log unit,Oc1c2nccc(C)c2ccc1,oh,25,?C
CC1=NC2=C(C=C1)C(=CC=C2O)N=O,8-hydroxy-2-methyl-5-nitrosoquinoline,3.14,Log unit,n1c(ccc2c1c(ccc2N=O)O)C,n,25,?C
CC1=NC2=C(C=C1)C(=CC=C2O)N=O,8-hydroxy-2-methyl-5-nitrosoquinoline,7.48,Log unit,Oc1c2nc(ccc2c(cc1)N=O)C,oh,25,?C
CC1=NC2=C(C=C1)C(=CC=C2O)S([O-])(=O)=O,8-hydroxy-2-methyl-5-sulphoquinoline,9.3,Log unit,Oc1ccc(S(=O)(=O)[O-])c2ccc(C)nc12,oh,25,?C
CC1=NC2=C(C=C1)C(=CC=C2O)S([O-])(=O)=O,8-hydroxy-2-methyl-5-sulphoquinoline,4.8,Log unit,n1c2c(c(S(=O)(=O)[O-])ccc2O)ccc1C,n,25,?C
CC1=CC=NC2=C(O)C(=CC=C12)S([O-])(=O)=O,8-hydroxy-4-methyl-7-sulphoquinoline,4.8,Log unit,n1c2c(c(S(=O)(=O)[O-])ccc2c(cc1)C)O,n,25,?C
CC1=CC=NC2=C(O)C(=CC=C12)S([O-])(=O)=O,8-hydroxy-4-methyl-7-sulphoquinoline,10,Log unit,Oc1c(S(=O)(=O)[O-])ccc2c(ccnc12)C,oh,25,?C
CC1=C(C2=C(N=CC=C2)C(O)=C1)S([O-])(=O)=O,8-hydroxy-6-methyl-5-sulphoquinoline,8.7,Log unit,Oc1cc(c(S(=O)(=O)[O-])c2cccnc12)C,oh,25,?C
OC1=C(C=C(C2=C1N=CC=C2)S([O-])(=O)=O)N=NC1=CC=C(C=C1)N(=O)=O,8-hydroxy-7-(4-nitrophenylazo)-5-sulphoquinoline,3.14,Log unit,n1c2c(c(S(=O)(=O)[O-])cc(c2O)N=Nc2ccc(N(=O)=O)cc2)ccc1,n,25,?C
OC1=CC=C(N=O)C2=C1N=CC=C2,8-Hydroxy-5-nitrosoquinoline,2.33,Log unit,n1cccc2c1c(ccc2N=O)O,n,25,?C
OC1=CC=C(N=O)C2=C1N=CC=C2,8-Hydroxy-5-nitrosoquinoline,7.75,Log unit,Oc1c2ncccc2c(cc1)N=O,oh,25,?C
OC1=C(C=C(C2=C1N=CC=C2)S([O-])(=O)=O)N(=O)=O,8-hydroxy-7-nitro-5-sulphoquinoline,1.94,Log unit,n1c2c(c(S(=O)(=O)[O-])cc(c2O)N(=O)=O)ccc1,n,25,?C
OC1=C(C=C(C2=C1N=CC=C2)S([O-])(=O)=O)N=NC1=CC=CC=C1,8-hydroxy-7-phenylazo-5-sulphoquinoline,3.34,Log unit,n1c2c(c(S(=O)(=O)[O-])cc(c2O)N=Nc2ccccc2)ccc1,n,25,?C
OC1=CC=C(C2=C1N=CC=C2)S([O-])(=O)=O,8-hydroxy-5-sulphoquinoline,8.78,Log unit,Oc1ccc(S(=O)(=O)[O-])c2cccnc12,oh,25,?C
OC1=C(C=CC2=C1N=CC=C2)C(F)(F)F,8-hydroxy-7-trifluoromethylquinoline,2.4,Log unit,n1cccc2c1c(O)c(cc2)C(F)(F)F,n,25,?C
OC1=C(C=CC2=C1N=CC=C2)C(F)(F)F,8-hydroxy-7-trifluoromethylquinoline,9.1,Log unit,Oc1c2ncccc2ccc1C(F)(F)F,oh,25,?C
SC1CCC(I)C2CCC[NH2+]C12,5-iodo-8-mercaptoquinoline,1.34,Log unit,SC1[CH][CH]C(I)C2[CH][CH][CH][NH2+]C12,sh,25,?C
[S-]C1=CC=C(I)C2=C1N=CC=C2,5-iodo-8-mercaptoquinoline,7.48,Log unit,n1c2c(c(I)ccc2[S-])ccc1,n,25,?C
SC1CCC2CCCCC2[NH2+]1,2-Mercaptoquinoline,-1.44,Log unit,SC1[NH2+]C2[CH][CH][CH][CH]C2[CH][CH]1,sh,25,?C
[S-]C1=NC2=C(C=CC=C2)C=C1,2-Mercaptoquinoline,10.25,Log unit,n1c([S-])ccc2c1cccc2,n,25,?C
[S-]C1=CN=C2C=CC=CC2=C1,3-mercaptoquinoline,6.17,Log unit,n1cc([S-])cc2c1cccc2,n,25,?C
CCCC1=C(C)N=C(N)N=C1C,"2-amino-4,6-dimethyl-5-propylpyrimidine",5.12,Log unit,n1c(nc(C)c(c1C)CCC)N,n,25,?C
NC1=NC(=CC(=N1)C1=CC=CC=C1)C1=CC=CC=C1,"2-amino-4,6-diphenylpyrimidine",3.44,Log unit,n1c(c2ccccc2)cc(nc1N)c1ccccc1,n,25,?C
NC1=NC=C(I)C=N1,2-Amino-5-iodopyrimidine,1.9,Log unit,n1cc(I)cnc1N,n,25,?C
CC1=CC=C(C=C1)C1=CN=C(N)N=C1,2-amino-5-(p-tolyl)pyrimidine,3.14,Log unit,n1cc(c2ccc(cc2)C)cnc1N,n,25,?C
CCOC1=NC=C(Br)C=N1,5-bromo-2-ethoxypyrimidine,-0.72,Log unit,n1cc(Br)cnc1OCC,n,25,?C
[O-]C1=NC=C(Br)C=N1,5-Bromo-2-hydroxypyrimidine,7.06,Log unit,n1cc(Br)cnc1[O-],n,25,?C
[S-]C1=NC=C(Br)C=N1,5-bromo-2-mercaptopyrimidine,5.22,Log unit,n1cc(Br)cnc1[S-],n,25,?C
CCC(C)OC1=NC=CC=N1,2-sec-butoxypyrimidine,1.33,Log unit,n1cccnc1OC(C)CC,n,25,?C
[O-]C(=O)C1=NC=CC=N1,2-carboxypyrimidine,2.5,Log unit,n1cccnc1C(=O)[O-],n,25,?C
ClC1=NC=CC=N1,2-Chloropyrimidine,-2.2,Log unit,n1c(Cl)nccc1,n,25,?C
NC1=CN=C(N)N=C1,"2,5-diaminopyrimidine",3.63,Log unit,n1cc(cnc1N)N,n,25,?C
CC1=CC(C)=NC=N1,"4,6-Dimethylpyrimidine",2.4,Log unit,n1cnc(C)cc1C,n,25,?C
[O-]C1=NC=CC=N1,2-Hydroxypyrimidine,9.2,Log unit,n1c([O-])nccc1,n,25,?C
OC1=CN=CN=C1,5-hydroxypyrimidine,6.8,Log unit,Oc1cncnc1,oh,25,?C
OC1=CN=CN=C1,5-hydroxypyrimidine,1.55,Log unit,n1cc(O)cnc1,n,25,?C
COC1=NC(C)=CC([O-])=N1,4-hydroxy-2-methoxy-6-methylpyrimidine,8.5,Log unit,n1c([O-])cc(nc1OC)C,n,25,?C
CC1=NC([O-])=NC=C1,2-hydroxy-4-methylpyrimidine,9.9,Log unit,n1c([O-])nc(cc1)C,n,25,?C
NNC1=NC=CC=N1,2-hydrazinopyrimidine,4.25,Log unit,n1cccnc1NN,n,25,?C
CC1=CC(C)=NC([O-])=N1,"2-Hydroxy-4,6-dimethylpyrimidine",10,Log unit,n1c([O-])nc(cc1C)C,n,25,?C
OC1CC[NH2+]C([S-])[NH2+]1,4-Hydroxy-2-mercaptopyrimidine,-4.14,Log unit,OC1[NH2+]C([S-])[NH2+][CH][CH]1,oh,25,?C
OC1CC[NH2+]C(S)[NH2+]1,4-Hydroxy-2-mercaptopyrimidine,-6.64,Log unit,SC1[NH2+][CH][CH]C([NH2+]1)O,sh,25,?C
CCCC1CC([O-])[NH2+]C(S)[NH2+]1,4-hydroxy-2-mercapto-6-n-propylpyrimidine,-6.54,Log unit,SC1[NH2+]C([O-])[CH]C([NH2+]1)CCC,sh,25,?C
CCCC1CC(O)[NH2+]C([S-])[NH2+]1,4-hydroxy-2-mercapto-6-n-propylpyrimidine,-4.22,Log unit,OC1[NH2+]C([S-])[NH2+]C([CH]1)CCC,oh,25,?C
COC1=CC=C(C=C1)C1=CN=C([O-])N=C1,2-hydroxy-5-p-methoxyphenylpyrimidine,8.56,Log unit,n1c([O-])ncc(c1)c1ccc(OC)cc1,n,25,?C
CC1=CN=CN=C1[O-],4-hydroxy-5-methylpyrimidine,8.87,Log unit,n1c([O-])c(cnc1)C,n,25,?C
[O-]C1=NC=C(C=N1)C1=CC=C(C=C1)N(=O)=O,2-hydroxy-5-p-nitrophenylpyrimidine,7.87,Log unit,n1c([O-])ncc(c2ccc(N(=O)=O)cc2)c1,n,25,?C
CC1=CC=C(C=C1)C1=CN=C([O-])N=C1,2-hydroxy-5-p-tolylpyrimidine,8.44,Log unit,n1cc(c2ccc(cc2)C)cnc1[O-],n,25,?C
CC1=NC([O-])=NC(C)=C1C,"2-hydroxy-4,5,6-trimethylpyrimidine",10.55,Log unit,n1c([O-])nc(c(c1C)C)C,n,25,?C
[S-]C1=NC=CC=N1,2-Mercaptopyrimidine,6.9,Log unit,n1c([S-])nccc1,n,25,?C
SC1[NH2+]CCC[NH2+]1,2-Mercaptopyrimidine,-8.3,Log unit,SC1[NH2+][CH][CH][CH][NH2+]1,sh,25,?C
CC1=CC(C)=NC([S-])=N1,"2-Mercapto-4,6-dimethylpyrimidine",8.2,Log unit,n1c([S-])nc(cc1C)C,n,25,?C
COC1CC(S)[NH2+]CN1,4-mercapto-6-methoxypyrimidine,-1.98,Log unit,SC1[NH2+][CH]NC([CH]1)OC,sh,25,?C
COC1NC[NH2+]C(S)C1C,4-mercapto-6-methoxy-5-methylpyrimidine,-1.59,Log unit,SC1[NH2+][CH]NC(C1C)OC,sh,25,?C
COC1=NC=CC=N1,2-Methoxypyrimidine,0.75,Log unit,n1cccnc1OC,n,25,?C
CSC1=NC=CC=N1,2-Methylthiopyrimidine,0.29,Log unit,n1c(SC)nccc1,n,25,?C
CC1=NC=C(C=N1)N(=O)=O,2-methyl-5-nitropyrimidine,-1.49,Log unit,n1cc(cnc1C)N(=O)=O,n,25,?C
CSC1=NC=C(C=N1)N(=O)=O,2-methylthio-5-nitropyrimidine,-2.95,Log unit,n1c(SC)ncc(c1)N(=O)=O,n,25,?C
CCCOC1=NC=CC=N1,2-propoxypyrimidine,1.04,Log unit,n1cccnc1OCCC,n,25,?C
NC1=CC(N)=NC(N)=N1,"2,4,6-Triaminopyrimidine",6.5,Log unit,n1c(nc(N)cc1N)N,n,25,?C
NC1=NC(N)=C(SC2=CC=CC=C2)C(N)=N1,"2,4,6-triamino-5-phenylthiopyrimidine",5.36,Log unit,n1c(c(Sc2ccccc2)c(nc1N)N)N,n,25,?C
NC1=NC(N)=NC(N)=N1,"2,4,6-Triamino-1,3,5-triazine",4.8,Log unit,n1c(nc(N)nc1N)N,n,25,?C
CCNC1=NC(NCC)=NC(NCC)=N1,"2,4,6-trisethylamino-1,3,5-triazine",5.4,Log unit,n1c(nc(NCC)nc1NCC)NCC,n,25,?C
OCCCNC1=NC(NCCCO)=NC(NCCCO)=N1,"2,4,6-tris(3-hydroxy)propylamino-1,3,5-triazine",5.18,Log unit,n1c(NCCCO)nc(NCCCO)nc1NCCCO,n,25,?C
COCNC1=NC(NCOC)=NC(NCOC)=N1,"2,4,6-tris(methoxy)methylamino-1,3,5-triazine",3.2,Log unit,n1c(NCOC)nc(NCOC)nc1NCOC,n,25,?C
C1=CC=C2C=NC=CC2=C1,isoquinoline,5.4,Log unit,n1cc2ccccc2cc1,n,25,?C
NC1=NC=CC2=CC=CC=C12,1-Aminoisoquinoline,7.48,Log unit,n1c(c2ccccc2cc1)N,n,25,?C
NC1=CN=CC2=CC=CC=C12,4-amino-isoquinoline,6.26,Log unit,n1cc2ccccc2c(c1)N,n,25,?C
NC1=CC=CC2=CN=CC=C12,5-amino-isoquinoline,5.57,Log unit,n1ccc2c(cccc2c1)N,n,25,?C
NC1=CC2=C(C=C1)C=NC=C2,6-amino-isoquinoline,7.16,Log unit,n1cc2ccc(cc2cc1)N,n,25,?C
NC1=CC2=C(C=CN=C2)C=C1,7-amino-isoquinoline,6.19,Log unit,n1ccc2ccc(cc2c1)N,n,25,?C
NC1=CC2=CC=CC=C2C=N1,3-aminoisquinoline,5.03,Log unit,n1cc2ccccc2cc1N,n,25,?C
NC1=CC=CC2=CC=NC=C12,8-aminoisoquinoline,6.04,Log unit,n1ccc2cccc(c2c1)N,n,25,?C
BrC1=CN=CC2=C1C=CC=C2,4-Bromoisoquinoline,3.31,Log unit,n1cc(Br)c2ccccc2c1,n,25,?C
[O-]C1=CC2=C(C=CC=C2)C=N1,3-hydroxyisoquinoline,9.62,Log unit,n1cc2ccccc2cc1[O-],n,25,?C
OC1CC2CCCCC2C[NH2+]1,3-hydroxyisoquinoline,2.18,Log unit,OC1[NH2+][CH]C2[CH][CH][CH][CH]C2[CH]1,oh,25,?C
OC1=C2C=CC=CC2=CN=C1,4-hydroxyisoquinoline,8.7,Log unit,Oc1cncc2c1cccc2,oh,25,?C
OC1=C2C=CC=CC2=CN=C1,4-hydroxyisoquinoline,4.74,Log unit,n1cc(O)c2ccccc2c1,n,25,?C
OC1=CC=CC2=CN=CC=C12,5-Hydroxyisoquinoline,5.38,Log unit,n1ccc2c(cccc2c1)O,n,25,?C
OC1=CC2=C(C=C1)C=NC=C2,6-hydroxy-isoquinoline,5.83,Log unit,n1cc2ccc(O)cc2cc1,n,25,?C
OC1=CC2=C(C=C1)C=NC=C2,6-hydroxy-isoquinoline,9.17,Log unit,Oc1ccc2cnccc2c1,oh,25,?C
OC1=CC2=CN=CC=C2C=C1,7-hydroxyisoquinoline,5.68,Log unit,n1ccc2ccc(cc2c1)O,n,25,?C
OC1=CC=CC2=CC=NC=C12,8-hydroxyisoquinoline,5.64,Log unit,n1ccc2cccc(c2c1)O,n,25,?C
SC1[NH2+]CCC2CCCCC12,1-mercaptoisoquinoline,-1.9,Log unit,SC1[NH2+][CH][CH]C2C1[CH][CH][CH][CH]2,sh,25,?C
[S-]C1=NC=CC2=C1C=CC=C2,1-mercaptoisoquinoline,10.86,Log unit,n1c([S-])c2ccccc2cc1,n,25,?C
SC1CC2CCCCC2C[NH2+]1,3-mercaptoisoquinoline,0.39,Log unit,SC1[NH2+][CH]C2[CH][CH][CH][CH]C2[CH]1,sh,25,?C
[S-]C1=NC=C2C=CC=CC2=C1,3-mercaptoisoquinoline,8.62,Log unit,n1c([S-])cc2c(c1)cccc2,n,25,?C
COC1=NC=CC2=CC=CC=C12,1-methoxyisoquinoline,3.01,Log unit,n1c(c2ccccc2cc1)OC,n,25,?C
CC1=CC2=CC=CC=C2C=N1,3-Methylisoquinoline,5.64,Log unit,n1cc2ccccc2cc1C,n,25,?C
CSC1=NC=CC2=C1C=CC=C2,1-methylthioisoquinoline,3.89,Log unit,n1c(SC)c2ccccc2cc1,n,25,?C
CSC1=NC=C2C=CC=CC2=C1,3-methylthioisoquinoline,3.37,Log unit,n1c(SC)cc2c(c1)cccc2,n,25,?C
O=N(=O)C1=CN=CC2=CC=CC=C12,4-nitroisoquinoline,1.35,Log unit,n1cc2ccccc2c(c1)N(=O)=O,n,25,?C
O=N(=O)C1=CC=CC2=CN=CC=C12,5-Nitroisoquinoline,3.49,Log unit,n1ccc2c(cccc2c1)N(=O)=O,n,25,?C
O=N(=O)C1=CC2=C(C=C1)C=NC=C2,6-nitro-isoquinoline,3.43,Log unit,n1cc2ccc(cc2cc1)N(=O)=O,n,25,?C
O=N(=O)C1=CC2=C(C=CN=C2)C=C1,7-nitro-isoquinoline,3.57,Log unit,n1ccc2ccc(cc2c1)N(=O)=O,n,25,?C
O=N(=O)C1=CC=CC2=CC=NC=C12,8-nitroisoquinoline,3.55,Log unit,n1ccc2cccc(c2c1)N(=O)=O,n,25,?C
C1=CC2=C(C=C1)N=CC=C2,Quinoline,4.925,Log unit,n1cccc2c1cccc2,n,25,?C
CS(=O)(=O)C1=NC=CC2=C1C=CC=C2,1-methylsulphonylisoquinoline,-0.83,Log unit,n1c(S(=O)(=O)C)c2ccccc2cc1,n,25,?C
CC(=O)C1=CC=C(O)C2=C1C=CC=N2,5-acetyl-8-hydroxyquinoline,4.385,Log unit,n1cccc2c1c(ccc2C(=O)C)O,n,25,?C
CC(=O)C1=CC=C(O)C2=C1C=CC=N2,5-acetyl-8-hydroxyquinoline,8.2,Log unit,Oc1c2ncccc2c(cc1)C(=O)C,oh,25,?C
NC1=NC2=C(C=CC=C2)C=C1,2-aminoquinoline,7.17,Log unit,n1c(ccc2c1cccc2)N,n,25,?C
NC1=CC2=C(C=CC=C2)N=C1,3-aminoquinoline,4.91,Log unit,n1cc(cc2c1cccc2)N,n,25,?C
NC1=CC=NC2=C1C=CC=C2,4-aminoquinoline,9.13,Log unit,n1ccc(N)c2c1cccc2,n,25,?C
NC1=CC=CC2=C1C=CC=N2,5-Aminoquinoline,5.345,Log unit,n1cccc2c1cccc2N,n,25,?C
NC1=CC2=C(C=C1)N=CC=C2,6-Aminoquinoline,5.52,Log unit,n1cccc2c1ccc(N)c2,n,25,?C
NC1=CC2=C(C=CC=N2)C=C1,7-Aminoquinoline,6.61,Log unit,n1cccc2c1cc(cc2)N,n,25,?C
NC1=CC=CC2=C1N=CC=C2,8-Aminoquinoline,4,Log unit,n1cccc2c1c(ccc2)N,n,25,?C
NC1=CC=NC2=CC(Cl)=CC=C12,4-AMINO-7-CHLOROQUINOLINE,8.23,Log unit,n1c2cc(Cl)ccc2c(cc1)N,n,25,?C
NC1=CC=NC2=C1C=CC=C2O,4-amino-8-hydroxyquinoline,10.71,Log unit,Oc1c2nccc(N)c2ccc1,oh,25,?C
NC1=CC=C(O)C2=C1C=CC=N2,5-amino-8-hydroxyquinoline,5.67,Log unit,n1cccc2c1c(ccc2N)O,n,25,?C
COC1=CC2=C(C=C1)N=CC=C2N,4-amino-6-methoxyquinoline,8.93,Log unit,n1ccc(N)c2c1ccc(OC)c2,n,25,?C
CC1=NC2=CC=CC=C2C(N)=C1,4-Amino-2-methylquinoline,9.42,Log unit,n1c2ccccc2c(cc1C)N,n,25,?C
CC1=CC2=C(N=C(C)C=C2N)C(C)=C1,"4-amino-2,6,8-trimethylquinoline",10.4,Log unit,n1c(cc(N)c2c1c(cc(C)c2)C)C,n,25,?C
BrC1=NC2=C(C=CC=C2)C=C1,2-bromoquinoline,1.05,Log unit,n1c(Br)ccc2c1cccc2,n,25,?C
BrC1=CN=C2C=CC=CC2=C1,3-Bromoquinoline,2.72,Log unit,n1cc(Br)cc2c1cccc2,n,25,?C
BrC1=CC=CC2=C1C=CC=N2,5-bromoquinoline,3.62,Log unit,n1c2c(c(Br)ccc2)ccc1,n,25,?C
BrC1=CC=C2N=CC=CC2=C1,6-Bromoquinoline,3.91,Log unit,n1c2ccc(Br)cc2ccc1,n,25,?C
BrC1=CC=C2C=CC=NC2=C1,7-Bromoquinoline,3.87,Log unit,n1c2cc(Br)ccc2ccc1,n,25,?C
BrC1=CC=CC2=C1N=CC=C2,8-Bromoquinoline,3.13,Log unit,n1c2c(Br)cccc2ccc1,n,25,?C
ClC1=CC=NC2=CC=C(Br)C=C12,6-bromo-4-chloroquinoline,2.83,Log unit,n1c2ccc(Br)cc2c(Cl)cc1,n,25,?C
ClC1=CC=NC2=CC(Br)=CC=C12,7-bromo-4-chloroquinoline,2.83,Log unit,n1c2cc(Br)ccc2c(Cl)cc1,n,25,?C
CS(=O)(=O)C1=CC=NC=C1,4-methylsulphonylpyridine,1.62,Log unit,n1ccc(S(=O)(=O)C)cc1,n,25,?C
CSC1=NC=CC=C1,2-METHYLTHIOPYRIDINE,3.59,Log unit,n1c(SC)cccc1,n,25,?C
CSC1=CN=CC=C1,3-METHYLTHIOPYRIDINE,4.42,Log unit,n1cc(SC)ccc1,n,25,?C
CSC1=CC=NC=C1,4-METHYLTHIOPYRIDINE,5.94,Log unit,n1ccc(SC)cc1,n,25,?C
CC1=CC=C(C=C)C=N1,2-METHYL-5-VINYLPYRIDINE,5.67,Log unit,n1cc(ccc1C)C=C,n,25,?C
CSCC1=NC=CC=C1,2-methylthiomethylpyridine,4.64,Log unit,n1c(CSC)cccc1,n,25,?C
CSC1=NC=C(C=C1)N(=O)=O,2-methylthio-5-nitropyridine,-0.29,Log unit,n1c(SC)ccc(c1)N(=O)=O,n,25,?C
O=N(=O)C1=CN=CC=C1,3-Nitropyridine,1.18,Log unit,n1cccc(c1)N(=O)=O,n,25,?C
O=N(=O)C1=CC(=CC=C1)C1=CC=CC=N1,2-meta-nitrophenylpyridine,3.55,Log unit,n1ccccc1c1cccc(c1)N(=O)=O,n,25,?C
O=N(=O)C1=CC=C(C=C1)C1=CC=CC=N1,2-para-nitrophenylpyridine,3.63,Log unit,n1ccccc1c1ccc(N(=O)=O)cc1,n,25,?C
OC(=O)C1C([NH2+]C(C(C1C([O-])=O)C(O)=O)C([O-])=O)C([O-])=O,pentacarboxypyridine,3.76,Log unit,OC(=O)C1C([NH2+]C(C(C1C(=O)[O-])C(=O)O)C(=O)[O-])C(=O)[O-],co2h,25,?C
OC(=O)C1=C(N=C(C([O-])=O)C(C([O-])=O)=C1C([O-])=O)C([O-])=O,pentacarboxypyridine,4.61,Log unit,OC(=O)c1c(c(c(nc1C(=O)[O-])C(=O)[O-])C(=O)[O-])C(=O)[O-],co2h,25,?C
CC(=O)C1=CC=C(C=C1)C1=NC=CC=C1,2-phenacylpyridine,5,Log unit,n1c(c2ccc(C(=O)C)cc2)cccc1,n,25,?C
CC(=O)C1=CC=C(C=C1)C1=CC=CN=C1,3-phenacylpyridine,4.87,Log unit,n1cc(c2ccc(C(=O)C)cc2)ccc1,n,25,?C
CC(=O)C1=CC=C(C=C1)C1=CC=NC=C1,4-phenacylpyridine,4.93,Log unit,n1ccc(c2ccc(C(=O)C)cc2)cc1,n,25,?C
CCCCCC1=CC=CC=N1,2-PENTYLPYRIDINE,6,Log unit,n1ccccc1CCCCC,n,25,?C
C1=CC=C(C=C1)C1=CC=CC=N1,2-Phenylpyridine,4.48,Log unit,n1ccccc1c1ccccc1,n,25,?C
O=S(=O)(CC1=NC=CC=C1)C1=CC=CC=C1,2-phenylsulphonylmethylpyridine,2.54,Log unit,n1c(CS(=O)(=O)c2ccccc2)cccc1,n,25,?C
O=S(=O)(CC1=CN=CC=C1)C1=CC=CC=C1,3-phenylsulphonylmethylpyridine,3.67,Log unit,n1cccc(c1)CS(=O)(=O)c1ccccc1,n,25,?C
O=S(=O)(CC1=CC=NC=C1)C1=CC=CC=C1,4-phenylsulphonylmethylpyridine,3.75,Log unit,n1ccc(CS(=O)(=O)c2ccccc2)cc1,n,25,?C
C1=CC=C(C=C1)N=NC1=CC=CC=N1,2-phenylazopyridine,2,Log unit,n1ccccc1N=Nc1ccccc1,n,25,?C
C(CC1=CC=CC=N1)N1CCCCC1,2-(piperidinoethyl)pyridine,9.29,Log unit,N1(CCc2ncccc2)CCCCC1,nr2,25,?C
C(CC1=CC=CC=N1)[NH+]1CCCCC1,2-(piperidinoethyl)pyridine,3.59,Log unit,n1ccccc1CC[NH+]1CCCCC1,n,25,?C
C(CC1=CN=CC=C1)N1CCCCC1,3-(piperidinoethyl)pyridine,8.81,Log unit,N1(CCc2cnccc2)CCCCC1,nr2,25,?C
C(CC1=CN=CC=C1)[NH+]1CCCCC1,3-(piperidinoethyl)pyridine,4.25,Log unit,n1cccc(c1)CC[NH+]1CCCCC1,n,25,?C
C(CC1=CC=NC=C1)N1CCCCC1,4-(piperidinoethyl)pyridine,9.06,Log unit,N1(CCc2ccncc2)CCCCC1,nr2,25,?C
C(CC1=CC=NC=C1)[NH+]1CCCCC1,4-(piperidinoethyl)pyridine,4.7,Log unit,n1ccc(CC[NH+]2CCCCC2)cc1,n,25,?C
C(N1CCCCC1)C1=CC=CC=N1,2-(piperidinomethyl)pyridine,8.51,Log unit,N1(Cc2ncccc2)CCCCC1,nr2,25,?C
C(N1CCCCC1)C1=CN=CC=C1,3-(piperidinomethyl)pyridine,8.3,Log unit,N1(Cc2cnccc2)CCCCC1,nr2,25,?C
C(N1CCCCC1)C1=CC=NC=C1,4-(piperidinomethyl)pyridine,7.88,Log unit,N1(Cc2ccncc2)CCCCC1,nr2,25,?C
CCCC1=CC=CC=N1,2-n-Propylpyridine,5.97,Log unit,n1ccccc1CCC,n,25,?C
CCCC1=CC=NC=C1,4-n-Propylpyridine,6.05,Log unit,n1ccc(CCC)cc1,n,25,?C
C1=CN=C(C=C1)C1=CC=CC=N1,2-(2-Pyridyl)pyridine,3.95,Log unit,n1ccccc1c1ncccc1,n,25,?C
C1CCC([NH2+]C1)C1=NC=CC=C1,2-(2-Pyridyl)pyridine,-0.2,Log unit,n1c(C2[NH2+][CH][CH][CH][CH]2)cccc1,n,25,?C
C1=CN=C(C=C1)C1=CN=CC=C1,2-(3-pyridyl)pyridine,4.12,Log unit,n1cccc(c1)c1ncccc1,n,25,?C
C1C[NH2+]CC(C1)C1=NC=CC=C1,2-(3-pyridyl)pyridine,1.82,Log unit,n1c(C2[CH][NH2+][CH][CH][CH]2)cccc1,n,25,?C