Smiles,Name,pKa,pKa Unit,Ionizable center smiles,IC group,Temperature,Temperature Unit
NCC1=CNC=N1,"Imisazole, 4-aminomethyl-",9.37,Log unit,NCc1nc[nH]c1,4,25,?C
[NH2+]CC1=CNC=N1,"Imisazole, 4-aminomethyl-",4.71,Log unit,n1c[nH]cc1C[NH2+],nethR,25,?C
N1C=NC(=C1C1=CC=CC=C1)C1=CC=CC=C1,"Imidazole, 4,5-diphenyl-",5.9,Log unit,n1c(c2ccccc2)c([nH]c1)c1ccccc1,nethR,25,?C
CCN1C=CN=C1,"Imidazole, 1-ethyl-",7.3,Log unit,n1ccn(c1)CC,nethR,25,?C
CCC1=NC=CN1,"Imidazole, 2-ethyl-",8,Log unit,n1cc[nH]c1CC,nethR,25,?C
OCC1=CNC=N1,"Imidazole, 4(or5)-hydroxymethyl-",6.385,Log unit,n1c[nH]cc1CO,nethR,25,?C
COC(=O)CCCC1=CNC=N1,"Imidazole, 4-(3-methoxycarbonylpropyl)-",6.65,Log unit,n1c[nH]cc1CCCC(=O)OC,nethR,25,?C
CN1C=CN=C1,"Imidazloe, 1-methyl-",7.075,Log unit,n1cn(C)cc1,nethR,25,?C
CC1=NC=CN1,"Imidazloe, 2-methyl-",7.851,Log unit,n1cc[nH]c1C,nethR,25,?C
CC1=CNC=N1,"Imidazole,4(or5)-methyl-",7.444,Log unit,n1c[nH]cc1C,nethR,25,?C
O=N(=O)C1=CNC=N1,"Imidazole, 4(or5)-nitro-",-0.05,Log unit,n1c[nH]cc1N(=O)=O,nethR,25,?C
N1C=CN=C1C1=CC=CC=C1,"Imidazole, 2-phenyl-",6.48,Log unit,n1cc[nH]c1c1ccccc1,nethR,25,?C
CCN(CC)CCC(C1=NCCN1)C1=CC=CC=C1,"2-Imidazoline, 2-(3-diethylamino-1-phenyl)prophyl-",10.09,Log unit,N1=C(C(c2ccccc2)CCN(CC)CC)NCC1,3,25,?C
CN(C)CCC(C1=NCCN1)C1=CC=CC=C1,"2-Imidazoline, 2-(3-dimethylamino-1-phenyl)prophyl-",9.99,Log unit,N1=C(C(c2ccccc2)CCN(C)C)NCC1,3,25,?C
OC1=CC2=C(C=CC=C2)C=C1C1=[N+]CCN1,"Imidazoline, 2-[3-(2-hyddroxynaphthyl)]-",7.01,Log unit,Oc1c(C2=[N+]CCN2)cc2ccccc2c1,oh,25,?C
[O-]C1=CC2=C(C=CC=C2)C=C1C1=NCCN1,"Imidazoline, 2-[3-(2-hyddroxynaphthyl)]-",10.85,Log unit,N1=C(NCC1)c1cc2ccccc2cc1[O-],nethR,25,?C
NC(=N)NC(N)=N,DIGUANIDE,12.5,Log unit,N=C(N)NC(=N)N,neth,25,?C
NC(=N)NC(N)=[NH2+],DIGUANIDE,3.4,Log unit,N=C(NC(=[NH2+])N)N,neth,25,?C
NC(=N)NC(=N)NC1=CC2=C(C=C1)C=C1C=CC=CC1=C2,N1-(2-anthryl)diguanide,11,Log unit,N=C(NC(=N)Nc1cc2cc3ccccc3cc2cc1)N,neth,25,?C
NC(=N)NC(=N)NC1=CC2=C(C=C1)C=C1C=CC=CC1=C2,N1-(2-anthryl)diguanide,10.4,Log unit,N=C(NC(=N)Nc1cc2cc3ccccc3cc2cc1)N,neth,25,?C
NC(=N)NC(N)=NCC1=CC=CC=C1,benzyl-diguanide,11.25,Log unit,N=C(N)NC(=NCc1ccccc1)N,neth,25,?C
NC(=[NH2+])NC(N)=NCC1=CC=CC=C1,benzyl-diguanide,2.7,Log unit,N(=C(NC(=[NH2+])N)N)Cc1ccccc1,neth,25,?C
CC(C)NC(=N)NC(=N)NC1=CC=C(Br)C=C1,N1-(4-bromophenyl)-N5-isopropyl-diguanide,11.4,Log unit,N=C(NC(=N)Nc1ccc(Br)cc1)NC(C)C,neth,25,?C
CC(C)NC(=[NH2+])NC(=N)NC1=CC=C(Br)C=C1,N1-(4-bromophenyl)-N5-isopropyl-diguanide,2.2,Log unit,N=C(Nc1ccc(Br)cc1)NC(=[NH2+])NC(C)C,neth,25,?C
CCCCN=C(N)NC(N)=N,butyl-diguanide,11.28,Log unit,N=C(N)NC(=NCCCC)N,neth,25,?C
CCCCN=C(N)NC(N)=[NH2+],butyl-diguanide,2.92,Log unit,N(=C(NC(=[NH2+])N)N)CCCC,neth,25,?C
NC(=[NH2+])NC(=N)NC1=CC=C(Cl)C=C1,N1-(4-chlrophenyl)-diguanide,2.2,Log unit,N=C(NC(=[NH2+])N)Nc1ccc(Cl)cc1,neth,25,?C
NC(=N)NC(=N)NC1=CC=C(Cl)C=C1,N1-(4-chlrophenyl)-diguanide,10.4,Log unit,N=C(N)NC(=N)Nc1ccc(Cl)cc1,8,25,?C
CC(C)NC(=N)NC(N)=NC1=CC=C(Cl)C=C1,N2-(4-chlrophenyl)-N5-isopropyl-diguanide,10.4,Log unit,N=C(NC(=Nc1ccc(Cl)cc1)N)NC(C)C,neth,25,?C
CC(C)NC(=[NH2+])NC(N)=NC1=CC=C(Cl)C=C1,N2-(4-chlrophenyl)-N5-isopropyl-diguanide,2.3,Log unit,N(=C(N)NC(=[NH2+])NC(C)C)c1ccc(Cl)cc1,neth,25,?C
CC(C)NC(=N)NC(=N)N(C)C1=CC=CC=C1,N1-(4-chlrophenyl)-N5-isopropyl-N1-methyl-diguanide,12.8,Log unit,N=C(NC(=N)N(c1ccccc1)C)NC(C)C,6,25,?C
CC(C)NC(=[NH2+])NC(=N)N(C)C1=CC=CC=C1,N1-(4-chlrophenyl)-N5-isopropyl-N1-methyl-diguanide,2.4,Log unit,N=C(N(c1ccccc1)C)NC(=[NH2+])NC(C)C,neth,25,?C
CN=C(NC(=N)NC(C)C)NC1=CC=CC=C1,N1-(4-chlrophenyl)-N5-isopropyl-N2-methyl-diguanide,11.8,Log unit,N=C(NC(=NC)Nc1ccccc1)NC(C)C,neth,25,?C
CN=C(NC(=[NH2+])NC(C)C)NC1=CC=CC=C1,N1-(4-chlrophenyl)-N5-isopropyl-N2-methyl-diguanide,2.3,Log unit,N(=C(Nc1ccccc1)NC(=[NH2+])NC(C)C)C,neth,25,?C
C[N+]=C(NC(C)C)NC(=N)NC1=CC=CC=C1,N1-(4-chlrophenyl)-N5-isopropyl-N4-methyl-diguanide,2,Log unit,N=C(Nc1ccccc1)NC(=[N+]C)NC(C)C,neth,25,?C
CN=C(NC(C)C)NC(=N)NC1=CC=CC=C1,N1-(4-chlrophenyl)-N5-isopropyl-N4-methyl-diguanide,12.2,Log unit,N(=C(NC(=N)Nc1ccccc1)NC(C)C)C,neth,25,?C
NC(=N)NC(N)=NC1CCCCC1,cyclohexyl-diguanide,11.39,Log unit,N(=C(NC(=N)N)N)C1CCCCC1,neth,25,?C
NC(=[NH2+])NC(N)=NC1CCCCC1,cyclohexyl-diguanide,3.2,Log unit,N(=C(NC(=[NH2+])N)N)C1CCCCC1,neth,25,?C
CCN(CC)C(=N)NC(N)=N,N'-diethyl-diguanide,11.66,Log unit,N=C(NC(=N)N)N(CC)CC,neth,25,?C
NC(=N)NC(=N)NCCNC(=N)NC(N)=N,N-(diguanidoethylene)-diguanide,11.5,Log unit,N=C(NC(=N)NCCNC(=N)NC(=N)N)N,neth,25,?C
NC(=[NH2+])NC(=N)NCCNC(=N)NC(N)=[NH2+],N-(diguanidoethylene)-diguanide,2.6,Log unit,N=C(NCCNC(=N)NC(=[NH2+])N)NC(=[NH2+])N,neth,25,?C
CN(C)C(=N)NC(N)=N,N'-dimethyl-diguanide,11.52,Log unit,N=C(NC(=N)N)N(C)C,neth,25,?C
CN(C)C(=N)NC(N)=[NH2+],N'-dimethyl-diguanide,2.75,Log unit,N=C(NC(=[NH2+])N)N(C)C,neth,25,?C
CCN=C(N)NC(N)=N,N'-ethyl-diguanide,11.47,Log unit,N=C(N)NC(=NCC)N,neth,25,?C
CCN=C(N)NC(N)=[NH2+],N'-ethyl-diguanide,3.08,Log unit,N(=C(NC(=[NH2+])N)N)CC,neth,25,?C
CCCCCCN=C(N)NC(N)=N,hexyl-diguanide,11.44,Log unit,N(=C(NC(=N)N)N)CCCCCC,neth,25,?C
CCCCCCN=C(N)NC(N)=[NH2+],cyclohexyl-diguanide,3.3,Log unit,N(=C(NC(=[NH2+])N)N)CCCCCC,neth,25,?C
CC(C)NC(=N)NC(=N)NC1=CC=C(I)C=C1,N1-(4-Iodophenyl)-N5-isopropyl-diguanide,11,Log unit,N=C(NC(=N)Nc1ccc(I)cc1)NC(C)C,neth,25,?C
CC(C)N=C(N)NC(N)=N,isoprpyl-diguanide,11.35,Log unit,N=C(N)NC(=NC(C)C)N,neth,25,?C
CC(C)N=C(N)NC(N)=[NH2+],isoprpyl-diguanide,3.1,Log unit,N(=C(NC(=[NH2+])N)N)C(C)C,neth,25,?C
CC(C)NC(=N)NC(=N)NC1=CC=CC=C1,N1-isopropyl-(4-Iodophenyl)-N5-diguanide,11.5,Log unit,N=C(NC(=N)Nc1ccccc1)NC(C)C,neth,25,?C
CC(C)NC(=[NH2+])NC(=N)NC1=CC=CC=C1,N1-isopropyl-(4-Iodophenyl)-N5-diguanide,1.9,Log unit,N=C(Nc1ccccc1)NC(=[NH2+])NC(C)C,neth,25,?C
CN=C(N)NC(N)=N,N'-methyl-diguanide,11.42,Log unit,N=C(N)NC(=NC)N,neth,25,?C
CN=C(N)NC(N)=[NH2+],N'-methyl-diguanide,3,Log unit,N(=C(NC(=[NH2+])N)N)C,neth,25,?C
NC(=N)NC(N)=NC1=CC=CC2=C1C=CC=C2,napthyl-diguanide,10.24,Log unit,N(=C(NC(=N)N)N)c1cccc2ccccc12,neth,25,?C
NC(=N)NC(N)=[N+]C1=CC=CC2=C1C=CC=C2,napthyl-diguanide,2.04,Log unit,N=C(N)NC(=[N+]c1cccc2ccccc12)N,neth,25,?C
NC(=N)NC(N)=NC1=CC2=C(C=CC=C2)C=C1,2-napthyl-diguanide,10.7,Log unit,N(=C(N)NC(=N)N)c1cc2ccccc2cc1,neth,25,?C
NC(=N)NC(=N)NC1=CC=CC=C1,phenyl-diguanide,10.7,Log unit,N=C(N)NC(=N)Nc1ccccc1,8,25,?C
NC(=[NH2+])NC(=N)NC1=CC=CC=C1,DIGUANIDE,2.1,Log unit,N=C(NC(=[NH2+])N)Nc1ccccc1,neth,25,?C
CCCN=C(N)NC(N)=N,propyl-diguanide,11.35,Log unit,N=C(N)NC(=NCCC)N,neth,25,?C
CCCN=C(N)NC(N)=[NH2+],isoprpyl-diguanide,3.1,Log unit,N(=C(NC(=[NH2+])N)N)CCC,neth,25,?C
NC(N)=N,GUANIDINE,13.9,Log unit,N=C(N)N,neth,25,?C
CC(=O)N=C(N)N,Acetylguanidine,8.26,Log unit,N(=C(N)N)C(=O)C,neth,25,?C
NN=C(N)N,aminoguanidine,3,Log unit,NC(=NN)N,neth,25,?C
NC(N)=NC1=CC2=C(C=C1)C=C1C=CC=CC1=C2,2-anthrylguanidine,11,Log unit,N(=C(N)N)c1cc2cc3ccccc3cc2cc1,neth,25,?C
CNC(=N)NC,"N,N'-Dimethylguanidine",13.9,Log unit,N=C(NC)NC,neth,25,?C
CN(C)C(N)=NN(=O)=O,"N,N-Dimethyl-N'-nitroguanidine",-1.3,Log unit,N(C)(C)C(=NN(=O)=O)N,neth,25,?C
N=C(NC1=CC=CC=C1)NC1=CC=CC=C1,"N,N'-Dphenylguanidine",10.3,Log unit,N=C(Nc1ccccc1)Nc1ccccc1,neth,25,?C
CNC(N)=N,METHYLGUANIDINE,13.7,Log unit,N=C(NC)N,neth,25,?C
CNC(N)=NN(=O)=O,N-Methyl-N'-nitroguanidine,-0.9,Log unit,N(C)C(=NN(=O)=O)N,neth,25,?C
NC(N)=NC1=CC2=C(C=CC=C2)C=C1,2-napthylguanidine,10.7,Log unit,N(=C(N)N)c1cc2ccccc2cc1,neth,25,?C
CNC1=CC=C(NCCO)C2=C1C(=O)C1=CC=CC=C1C2=O,Disperse blue 3,1.67,Log unit,N(c1ccc(NC)c2C(=O)c3ccccc3C(=O)c12)CCO,4,25,?C
N[NH2+],HYDRAZINE,-0.9,Log unit,N[NH2+],nr2,25,?C
CCN(N)CC,"N,N-di-ethylhydrazine",7.71,Log unit,NN(CC)CC,3,25,?C
CN(C)N,"N,N-di-methylhydrazine",7.21,Log unit,NN(C)C,3,25,?C
CCNN,Ethylhydrazine,7.99,Log unit,NNCC,3,25,?C
CNN,METHYLHYDRAZINE,7.87,Log unit,NNC,3,25,?C
CC(CCN(C)C)NN,1-dimethylamino-3-hydrazinobutane,9.23,Log unit,N(CCC(NN)C)(C)C,5,25,?C
CC(CC[N+](C)C)NN,1-dimethylamino-3-hydrazinobutane,6.1,Log unit,NNC(C)CC[N+](C)C,4,25,?C
CN(C)N(C)C,Tetramethylhydrazine,6.6,Log unit,N(N(C)C)(C)C,2,25,?C
CNN(C)C,trimethylhydrazine,6.8,Log unit,N(C)N(C)C,3,25,?C
NNCC1=CC=CC=C1,Benzylhydrazine,6.83,Log unit,NNCc1ccccc1,4,25,?C
CC1=CC=C(NN)C=C1Br,(3-bromo-4-methyl)phenylhydrazine,5.14,Log unit,NNc1cc(Br)c(cc1)C,4,25,?C
CC1=CC(NN)=CC=C1Br,(4-bromo-3-methyl)phenylhydrazine,5.2,Log unit,NNc1ccc(Br)c(c1)C,4,25,?C
CN(N)C1=CC=C(C)C=C1Br,1-(2-bromo-4-methyl)phenyl-1-methylhydrazine,4.95,Log unit,NN(c1c(Br)cc(cc1)C)C,3,25,?C
CN(N)C1=CC=C(C)C(Br)=C1,1-(3-bromo-4-methyl)phenyl-1-methylhydrazine,4.62,Log unit,NN(c1cc(Br)c(cc1)C)C,3,25,?C
NNC1=CC=CC=C1Br,(2-bromo)phenylhydrazine,4.54,Log unit,NNc1c(Br)cccc1,4,25,?C
NNC1=CC(Br)=CC=C1,(3-bromo)phenylhydrazine,4.84,Log unit,NNc1cc(Br)ccc1,4,25,?C
NNC1=CC=C(Br)C=C1,(4-bromo)phenylhydrazine,5.05,Log unit,NNc1ccc(Br)cc1,4,25,?C
CN(N)C1=CC=CC=C1Br,1-(o-bromophenyl)-1-methylhydrazine,4.68,Log unit,NN(c1c(Br)cccc1)C,3,25,?C
CN(N)C1=CC(Br)=CC=C1,1-(m-bromophenyl)-1-methylhydrazine,4.3,Log unit,NN(c1cc(Br)ccc1)C,3,25,?C
CN(N)C1=CC=C(Br)C=C1,1-(p-bromophenyl)-1-methylhydrazine,4.62,Log unit,NN(c1ccc(Br)cc1)C,3,25,?C
NNC1=CC=CC=C1Cl,(2-chloro)phenylhydrazine,4.65,Log unit,NNc1c(Cl)cccc1,4,25,?C
NNC1=CC(Cl)=CC=C1,(3-chloro)phenylhydrazine,4.85,Log unit,NNc1cc(Cl)ccc1,4,25,?C
NNC1=CC=C(Cl)C=C1,(4-chloro)phenylhydrazine,5.03,Log unit,NNc1ccc(Cl)cc1,4,25,?C
CN(N)C1=CC=CC=C1Cl,1-(o-chlorophenyl)-1-methylhydrazine,4.78,Log unit,NN(c1c(Cl)cccc1)C,3,25,?C
CN(N)C1=CC(Cl)=CC=C1,1-(m-chlorophenyl)-1-methylhydrazine,4.43,Log unit,NN(c1cc(Cl)ccc1)C,3,25,?C
CN(N)C1=CC=C(Cl)C=C1,1-(p-chlorophenyl)-1-methylhydrazine,4.64,Log unit,NN(c1ccc(Cl)cc1)C,3,25,?C
NNCCC#N,(2-cyano)ethylhydrazine,5.91,Log unit,NNCCC#N,4,25,?C
NNC1=CC(=CC=C1)C#N,(3-cyano)phenylhydrazine,4.5,Log unit,NNc1cccc(c1)C#N,4,25,?C
NNC1=CC=C(C=C1)C#N,(4-cyano)phenylhydrazine,4.2,Log unit,NNc1ccc(cc1)C#N,4,25,?C
CN(N)C1=C(Br)C=C(Br)C=C1,"1-(2,4-dibromo)phenyl-1-methylhydrazine",4.65,Log unit,NN(c1c(cc(Br)cc1)Br)C,3,25,?C
NNC1=C(Cl)C=C(Cl)C=C1,"(2,4-dichloro)phenylhydrazine",4.3,Log unit,NNc1c(cc(Cl)cc1)Cl,4,25,?C
NNC1=CC(Cl)=CC=C1Cl,"(2,5-dichlro)phenylhydrazine",4.44,Log unit,NNc1cc(Cl)ccc1Cl,4,25,?C
NNC1=CC=C(Cl)C(Cl)=C1,"(3,4-dichloro)phenylhydrazine",4.8,Log unit,NNc1ccc(Cl)c(Cl)c1,4,25,?C
CC1=CC(C)=C(NN)C=C1,"(2,4-dimethyl)phenylhydrazine",5.72,Log unit,NNc1ccc(cc1C)C,4,25,?C
CCOC(=O)CNN,ethoxycarbonylmethylhydrazine,5.97,Log unit,NNCC(=O)OCC,4,25,?C
CCOC(=O)C1=CC=CC=C1NN,(2-ethoxycarbonyl)phenylhydrazine,4.66,Log unit,NNc1ccccc1C(=O)OCC,4,25,?C
CCOC(=O)C1=CC=CC(NN)=C1,(3-ethoxycarbonyl)phenylhydrazine,4.81,Log unit,NNc1cccc(c1)C(=O)OCC,4,25,?C
CCOC(=O)C1=CC=CC=C1N(C)N,1-(o-ethoxycarbonylphenyl)-1-methylhydrazine,4.91,Log unit,NN(c1ccccc1C(=O)OCC)C,3,25,?C
CCOC(=O)C1=CC=CC(=C1)N(C)N,1-(m-ethoxycarbonylphenyl)-1-methylhydrazine,4.45,Log unit,NN(c1cccc(c1)C(=O)OCC)C,3,25,?C
CCOC(=O)C1=CC=C(C=C1)N(C)N,1-(p-ethoxycarbonylphenyl)-1-methylhydrazine,4.15,Log unit,NN(c1ccc(cc1)C(=O)OCC)C,3,25,?C
CCOC1=CC=CC=C1NN,(2-ethoxy)phenylhydrazine,5.36,Log unit,NNc1ccccc1OCC,4,25,?C
CCOC1=CC=CC(NN)=C1,(3-ethoxy)phenylhydrazine,5.14,Log unit,NNc1cccc(c1)OCC,4,25,?C
CCOC1=CC=C(NN)C=C1,(4-ethoxy)phenylhydrazine,5.59,Log unit,NNc1ccc(cc1)OCC,4,25,?C
CCOC1=CC=CC=C1N(C)N,1-(o-ethoxyphenyl)-1-methylhydrazine,5.25,Log unit,NN(c1ccccc1OCC)C,3,25,?C
CCOC1=CC(=CC=C1)N(C)N,1-(m-ethoxyphenyl)-1-methylhydrazine,4.72,Log unit,NN(c1cccc(c1)OCC)C,3,25,?C
CCOC1=CC=C(C=C1)N(C)N,1-(p-ethoxyphenyl)-1-methylhydrazine,5.53,Log unit,NN(c1ccc(cc1)OCC)C,3,25,?C
CCN(N)C1=CC=CC=C1,1-Ethyl-1-phenylhydrazine,5.16,Log unit,NN(c1ccccc1)CC,3,25,?C
NNCCO,(2-hydroxy)ethylhydrazine,7.12,Log unit,NNCCO,4,25,?C
NNC1=CC(I)=CC=C1,3-iodophenylhydrazine,4.7,Log unit,NNc1cc(I)ccc1,4,25,?C
NNC1=CC=C(I)C=C1,4-Iodophenylhydrazine,4.9,Log unit,NNc1ccc(I)cc1,4,25,?C
COC1=CC=CC=C1NN,(2-methoxy)phenylhydrazine,5.53,Log unit,NNc1ccccc1OC,4,25,?C
COC1=CC(NN)=CC=C1,(3-methoxy)phenylhydrazine,5.3,Log unit,NNc1cccc(c1)OC,4,25,?C
COC1=CC=C(NN)C=C1,(4-methoxy)phenylhydrazine,5.71,Log unit,NNc1ccc(cc1)OC,4,25,?C
COC1=CC=CC=C1N(C)N,1-(o-methoxyphenyl)-1-methylhydrazine,5.42,Log unit,NN(c1ccccc1OC)C,3,25,?C
COC1=CC(=CC=C1)N(C)N,1-(m-methoxyphenyl)-1-methylhydrazine,4.9,Log unit,NN(c1cccc(c1)OC)C,3,25,?C
COC1=CC=C(C=C1)N(C)N,1-(p-methoxyphenyl)-1-methylhydrazine,5.6,Log unit,NN(c1ccc(cc1)OC)C,3,25,?C
CN(N)C1=C(C)C=C(C)C=C1,"1-methyl-1-(2,4-dimethyl)phenylhydrazine",6.03,Log unit,NN(c1ccc(cc1C)C)C,3,25,?C
CN(N)C1=CC=CC=C1N(=O)=O,1-methyl-1-(2-nitro)phenylhydrazine,4.32,Log unit,NN(c1ccccc1N(=O)=O)C,3,25,?C
CN(N)C1=CC=CC=C1,1-Methyl-1-phenylhydrazine,4.98,Log unit,NN(c1ccccc1)C,3,25,?C
CC1=CC=CC=C1NN,(2-methyl)phenylhydrazine,5.32,Log unit,NNc1ccccc1C,4,25,?C
CC1=CC(NN)=CC=C1,(3-methyl)phenylhydrazine,5.345,Log unit,NNc1cccc(c1)C,4,25,?C
CC1=CC=C(NN)C=C1,(4-methyl)phenylhydrazine,5.405,Log unit,NNc1ccc(cc1)C,4,25,?C
CN(N)C1=CC=CC=C1C,1-methyl-1-(o-tolyl)hydrazine,5.29,Log unit,NN(c1ccccc1C)C,3,25,?C
CN(N)C1=CC=CC(C)=C1,1-methyl-1-(m-tolyl)hydrazine,5.09,Log unit,NN(c1cccc(c1)C)C,3,25,?C
CN(N)C1=CC=C(C)C=C1,1-methyl-1-(p-tolyl)hydrazine,5.3,Log unit,NN(c1ccc(cc1)C)C,3,25,?C
NNC1=CC2=C(C=CC=C2)C=C1,naphthylhydrazine,5.06,Log unit,NNc1cc2ccccc2cc1,4,25,?C
NNC1=CC=CC=C1N(=O)=O,(2-nitro)phenylhydrazine,3.5,Log unit,NNc1ccccc1N(=O)=O,4,25,?C
NNC1=CC(=CC=C1)N(=O)=O,(3-nitro)phenylhydrazine,4.375,Log unit,NNc1cccc(c1)N(=O)=O,4,25,?C
NNC1=CC=C(C=C1)N(=O)=O,(4-nitro)phenylhydrazine,3.82,Log unit,NNc1ccc(cc1)N(=O)=O,4,25,?C
NNCC(F)(F)C(F)(F)C(F)(F)C(F)F,"(2,2,3,3,4,4,5,5-octafluoro)pentyl-hydrazine",5.34,Log unit,NNCC(C(C(C(F)F)(F)F)(F)F)(F)F,4,25,?C
NNC1=CC=C(OC2=CC=CC=C2)C=C1,4-phenoxyphenylhydrazine,5.36,Log unit,NNc1ccc(Oc2ccccc2)cc1,4,25,?C
NNC1=CC=CC=C1,Phenylhydrazine,5.235,Log unit,NNc1ccccc1,4,25,?C
CC(NN)C(F)(F)C(F)F,"(2,2,3,3-tetrafluoro-1-methyl)propylhydrazine",5.59,Log unit,NNC(C(C(F)F)(F)F)C,4,25,?C
NNCC(F)(F)F,"(2,2,2-trifluoro)ethylhydrazine",5.38,Log unit,NNCC(F)(F)F,4,25,?C
NNC(C1=CC=CC=C1)C(F)(F)F,(alpha-trifluoromethyl)benzylhydrazine,4.88,Log unit,NNC(c1ccccc1)C(F)(F)F,4,25,?C
NC(CC(N)=NO)=NO,"1,3-diamino-1,3-bishydroxyiminopropane",4.43,Log unit,N(=C(N)CC(=NO)N)O,neth,25,?C
NC(=NO)C(N)=NO,"1,2-diamino-1,2-bishydroxyiminoethane",2.6,Log unit,N(=C(N)C(=NO)N)O,neth,25,?C
NC(CCC(N)=NO)=NO,"1,4-diamino-1,4-bishydroxyiminobutane",5.63,Log unit,N(=C(CCC(=NO)N)N)O,neth,25,?C
NC(CCC(N)=[N+]O)=NO,"1,4-diamino-1,4-bishydroxyiminobutane",3.3,Log unit,N(=C(CCC(=[N+]O)N)N)O,neth,25,?C
CN=C1CCCCC1C,C-N-dimethylcyclohexanimine,9.47,Log unit,N(=C1CCCCC1C)C,neth,25,?C
CN=C1CCCCC1,N-methylcyclohexanimine,9.43,Log unit,N(=C1CCCCC1)C,neth,25,?C
CCNC1=CC(CC(C)(C)C1)=NCC,"1-ethylamino-3-ethylimino-5,5-dimethylcyclohex-1-ene",12.13,Log unit,N(=C1C=C(CC(C)(C)C1)NCC)CC,neth,25,?C
CC(=N)NC1=CC=C(Cl)C=C1,N-acetimido-4-chloroaniline,9.5,Log unit,N=C(Nc1ccc(Cl)cc1)C,neth,25,?C
CCOC1=CC=C(NC(C)=NC2=CC=C(OCC)C=C2)C=C1,4-ethoxy-N-[1-(p-ethoxyphenylimino)ethyl]aniline,9.27,Log unit,N(=C(Nc1ccc(OCC)cc1)C)c1ccc(cc1)OCC,neth,25,?C
ClC1=CC=C(C=NC2=CC=CC=C2)C=C1,N-4-chlorobenzylideneaniline,2.8,Log unit,N(=Cc1ccc(Cl)cc1)c1ccccc1,neth,25,?C
CC(NC1=CC=CC=C1)=NC1=CC=CC=C1,N-(1-phenyliminoethyl)aniline,8.298,Log unit,N(=C(Nc1ccccc1)C)c1ccccc1,neth,25,?C
C1=CC=C(C=C1)N=NC1=CC=CC=C1,azobenzene,-2.78,Log unit,N(=Nc1ccccc1)c1ccccc1,neth,25,?C
CC[N+](CC)C1=CC=C(C=C1)N=NC1=CC=C(O)C=C1,4-diethylamino-4'-hydroxyazobenzene,-1.8,Log unit,N(=Nc1ccc(O)cc1)c1ccc([N+](CC)CC)cc1,2,25,?C
CC[N+](CC)C1=CC=C(C=C1)N=NC1=CC=C(C=C1)C(=O)OC,4-diethylamino-4'-methoxycarbonylazobenzene,-2.7,Log unit,N(=Nc1ccc(cc1)C(=O)OC)c1ccc([N+](CC)CC)cc1,1,25,?C
COC1=CC=C(C=C1)N=NC1=CC=C(C=C1)[N+](C)C,4-dimethylamino-4'-methoxyazobenzene,-2.13,Log unit,N(=Nc1ccc(OC)cc1)c1ccc([N+](C)C)cc1,1,25,?C
CC1=CC(C)=C(N=NC2=C(C)C=C(O)C=C2C)C(C)=C1,"4-hydroxy-2,2',4',6,6'-pentamethylazobenzene",-1.3,Log unit,N(=Nc1c(cc(O)cc1C)C)c1c(cc(C)cc1C)C,neth,25,?C
O=N(=O)C1=CC=C(C=C1)N=NC1=CC=CC=C1,4-Nitroazobenzene,-3.47,Log unit,N(=Nc1ccccc1)c1ccc(N(=O)=O)cc1,neth,25,?C
NC(=N)CC1=CC=CC=C1,amidinomethyl-benzzne,11.87,Log unit,N=C(Cc1ccccc1)N,neth,25,?C
NC(=N)C1=CC=CC=C1,guanidinobenzene,11.3,Log unit,N=C(c1ccccc1)N,neth,25,?C
NC(=N)C1=CC=C(O)C=C1,4-hydroxy-guanidinobenzene,12.5,Log unit,N=C(c1ccc(O)cc1)N,neth,25,?C
NC(=N)C1=CC=C(C=C1)C([O-])=O,4-carboxy-guanidinobenzene,10.9,Log unit,N=C(c1ccc(C(=O)[O-])cc1)N,neth,25,?C
COC1=CC=C(C=C1)C(N)=N,4-methoxy-guanidinobenzene,11.8,Log unit,N=C(c1ccc(OC)cc1)N,neth,25,?C
NC(=N)C1=CC=C(C=C1)N(=O)=O,4-nitro-guanidinobenzene,9.58,Log unit,N=C(c1ccc(N(=O)=O)cc1)N,neth,25,?C
CC(O)(C(N)=N)C1=CC=CC=C1,(1-amidino-1-hydroxy)ethylbenzene,10.96,Log unit,N=C(C(c1ccccc1)(O)C)N,neth,25,?C
CC1=CC(=C(N)C(=C1)N(=O)=O)N(=O)=O,"4-Methyl-2,6-dinitroaniline",-4.505,Log unit,Nc1c(cc(cc1N(=O)=O)C)N(=O)=O,nr2,25,?C
CC1=C(C=CC(N)=C1)N(=O)=O,3-methyl-4-nitro-aniline,1.57,Log unit,Nc1ccc(c(C)c1)N(=O)=O,nr2,25,?C
CC1=C(C=C(N)C=C1)N(=O)=O,4-methyl-3-nitro-aniline,2.995,Log unit,Nc1ccc(C)c(N(=O)=O)c1,nr2,25,?C
CC1=C(N)C=CC(=C1)N(=O)=O,2-methyl-4-nitroaniline,1.04,Log unit,Nc1ccc(cc1C)N(=O)=O,nr2,25,?C
CC1=C(N)C=C(C=C1)N(=O)=O,2-Methyl-5-nitroaniline,2.32,Log unit,Nc1c(ccc(c1)N(=O)=O)C,nr2,25,?C
CC1=CC(=CC(N)=C1)N(=O)=O,3-methyl-5-nitroaniline,2.38,Log unit,Nc1cc(cc(c1)N(=O)=O)C,nr2,25,?C
NC1=CC=CC=C1N(=O)=O,2-nitroaniline,-0.255,Log unit,Nc1ccccc1N(=O)=O,nr2,25,?C
NC1=CC=C(C=C1)N(=O)=O,4-NITRO-ANILINE,1.02,Log unit,Nc1ccc(cc1)N(=O)=O,nr2,25,?C
NC1=CC=C(CC2=CC=C(C=C2)N(=O)=O)C=C1,4-(p-nitro)benzylaniline,4.45,Log unit,Nc1ccc(cc1)Cc1ccc(N(=O)=O)cc1,nr2,25,?C
O=N(=O)C1=CC=C(NC2=CC=C(C=C2)N(=O)=O)C=C1,4-nitro-N-(4-nitro)phenylaniline,-6.2,Log unit,N(c1ccc(N(=O)=O)cc1)c1ccc(N(=O)=O)cc1,nr2,25,?C
NC1=CC=C(NC2=CC=C(C=C2)N(=O)=O)C=C1,4-(p-nitro)phenylaminoaniline,4.38,Log unit,Nc1ccc(cc1)Nc1ccc(N(=O)=O)cc1,4,25,?C
NC1=CC(=C(C=C1)N(=O)=O)C(F)(F)F,4-Nitro-3-trifluoromethylaniline,-0.05,Log unit,Nc1ccc(N(=O)=O)c(C(F)(F)F)c1,nr2,25,?C
NC1=CC=C(NC2=CC=CC=C2)C=C1,4-phenylaminoaniline,5.2,Log unit,Nc1ccc(Nc2ccccc2)cc1,4,25,?C
CC1=C(C)C(=C(C)C(C)=C1N)N(=O)=O,"2,3,5,6-TETRAMETHYL-4-NITROANILINE",2.36,Log unit,Nc1c(c(c(N(=O)=O)c(c1C)C)C)C,nr2,25,?C
CCN(CC)C1=CC=C(C=C1)N=NC1=CC=C(C=C1)C(=O)OC,4-diethylamino-4'-methoxycarbonylazobenzene,-2.7,Log unit,N(=Nc1ccc(N(CC)CC)cc1)c1ccc(cc1)C(=O)OC,neth,25,?C
C[N+](C)C1=CC=C(C=C1)N=NC1=CC=CC=C1,4-dimethylaminoazobenzene,-1.3,Log unit,N(=Nc1ccc([N+](C)C)cc1)c1ccccc1,1,25,?C
C[N+](C)C1=CC=C(C=C1)N=NC1=CC=C(O)C=C1,4-dimethylamino-4'-hydroxyazobenzene,-1.8,Log unit,N(=Nc1ccc(O)cc1)c1ccc([N+](C)C)cc1,2,25,?C
CN(C)C1=CC=C(C=C1)N=NC1=CC=C(C=C1)N(=O)=O,4-dimethylamino-4'-nitroazobenzene,1.81,Log unit,N(c1ccc(N=Nc2ccc(N(=O)=O)cc2)cc1)(C)C,nr2,25,?C
CNC1=CC=C(C=C1SC)N=N,4-methylamino-3-methylmercaptoazobenzene,2.03,Log unit,N=Nc1cc(SC)c(cc1)NC,nr2,25,?C
CNC1=C(C)C=C(C=C1)N=N,3-methyl-4-methylaminoazobenzene,2.94,Log unit,N=Nc1ccc(c(C)c1)NC,nr2,25,?C
NCCC1=CC=C(O)C(O)=C1,"1-(2-amino)ethyl-3,4-dihydroxybenzene",8.925,Log unit,NCCc1ccc(O)c(O)c1,1,25,?C
NCCC1=CC=C([O-])C(O)=C1,"1-(2-amino)ethyl-3,4-dihydroxybenzene",10.63,Log unit,Oc1c([O-])ccc(CCN)c1,nr2,25,?C
NCCC1=CC=C(O)C=C1,1-(2-amino)ethyl-4-hydroxybenzene,9.7,Log unit,NCCc1ccc(O)cc1,oh,25,?C
NCCC1=CC=C([O-])C=C1,1-(2-amino)ethyl-4-hydroxybenzene,10.9,Log unit,[O-]c1ccc(CCN)cc1,nr2,25,?C
NCC(O)C1=CC=CC(O)=C1,1-(2-amino-1-hydroxy)ethyl-3-hydroxybenzene,9.5,Log unit,Oc1cccc(C(O)CN)c1,nr2,25,?C
NCC(O)C1=CC=C(O)C=C1,1-(2-amino-1-hydroxy)ethyl-4-hydroxybenzene,9.549999,Log unit,Oc1ccc(C(O)CN)cc1,nr2,25,?C
CC(N)CCCC1=CC=C(O)C=C1,1-(4-amino)pentyl-4-hydroxybenzene,9.4,Log unit,Oc1ccc(CCCC(N)C)cc1,nr2,25,?C
CNCC(O)C1=CC=C(O)C(O)=C1,"1,2-dihydroxy-4-(1-hydroxy-2-methylamino)ethylbenzene",8.5,Log unit,N(CC(c1ccc(O)c(O)c1)O)C,3,25,?C
CNCC(O)C1=CC=C(O)C([O-])=C1,"1,2-dihydroxy-4-(1-hydroxy-2-methylamino)ethylbenzene",10.5,Log unit,[O-]c1c(O)ccc(C(O)CNC)c1,nr2,25,?C
CNCCC1=CC=C(O)C(O)=C1,"1,2-dihydroxy-4-(2-methylamino)ethylbenzene",8.9,Log unit,Oc1c(O)ccc(CCNC)c1,2,25,?C
NNC(=O)C1=CC=CC=C1,hydrazinocarbonylbenzene,3.03,Log unit,NNC(=O)c1ccccc1,4,25,?C
CNCC(O)C1=CC(O)=CC=C1,1-hydroxy-3-(1-hydroxy-2-methylamino)ethylbenzene,8.875,Log unit,Oc1cccc(c1)C(O)CNC,nr2,25,?C