Smiles,Name,pKa,pKa Unit,Ionizable center smiles,IC group,Temperature,Temperature Unit
NC1=CC(=C(Cl)C=C1)[N+]([O-])=O,"BENZENAMINE, 4-CHLORO-3-NITRO-",1.9,Log unit,Nc1ccc(c([N+](=O)[O-])c1)Cl,aniline,25,?C
NC1=CC=C(C=C1)C(F)(F)F,p-Trifluoromethylaniline,2.45,Log unit,Nc1ccc(C(F)(F)F)cc1,aniline,25,?C
COC(=O)C1=CC=C(N)C=C1,METHYL P-AMINOBENZOATE,2.47,Log unit,Nc1ccc(cc1)C(=O)OC,aniline,25,?C
CCCCOC(=O)C1=CC=C(N)C=C1,BUTYL-P-AMINOBENZOATE,2.472,Log unit,Nc1ccc(cc1)C(=O)OCCCC,aniline,25,?C
CCCOC(=O)C1=CC=C(N)C=C1,Propyl-p-aminobenzoate,2.49,Log unit,Nc1ccc(cc1)C(=O)OCCC,aniline,25,?C
CCOC(=O)C1=CC=C(N)C=C1,"P-AMINOBENZOIC ACID, ETHYL ESTER",2.508,Log unit,Nc1ccc(cc1)C(=O)OCC,aniline,25,?C
NC1=CC(Cl)=C(Cl)C=C1,"3,4-dichloroaniline",2.968,Log unit,Nc1ccc(c(Cl)c1)Cl,aniline,25,?C
NC1=CC=CC(=C1)C(F)(F)F,3-trifluoromethylaniline,3.49,Log unit,Nc1cc(C(F)(F)F)ccc1,aniline,25,?C
NC1=CC=CC(Br)=C1,m-Bromoaniline,3.58,Log unit,Nc1cc(Br)ccc1,aniline,25,?C
NC1=CC=CC(I)=C1,"Benzenamine, 3-iodo-",3.61,Log unit,Nc1cc(I)ccc1,aniline,25,?C
NC1=CC=C(I)C=C1,"BENZENAMINE, 4-IODO-",3.78,Log unit,Nc1ccc(I)cc1,aniline,25,?C
NC1=CC=C(Br)C=C1,P-BROMOANILINE,3.86,Log unit,Nc1ccc(Br)cc1,aniline,25,?C
CC1=C(Br)C=CC(N)=C1,4-BROMO-3-METHYLANILINE,4.05,Log unit,Nc1cc(c(Br)cc1)C,aniline,25,?C
NC1=C(C=CC=C1)C(O)=O,2-aminobenzoic acid,2.14,Log unit,Nc1c(cccc1)C(=O)O,aniline,,-
NC1=C(O)C=CC=C1,o-Aminophenol,4.84,Log unit,Nc1c(cccc1)O,aniline,20,?C
NC1=C(O)C=CC(=C1)[N+]([O-])=O,2-amino-4-nitrophenol,3.1,Log unit,Nc1cc([N+](=O)[O-])ccc1O,aniline,25,?C
NC1=C(Br)C=C(Br)C=C1,"2,4-DIBROMOANILINE",2.3,Log unit,Nc1c(Br)cc(cc1)Br,aniline,15,?C
CC1=C(C=C(N)C=C1)[N+]([O-])=O,3-Nitro-4-toluidine,3.03,Log unit,Nc1cc([N+](=O)[O-])c(cc1)C,aniline,17,?C
NC1=C(C=CC=C1)C1=CC=CC=C1,2-Aminobiphenyl,3.83,Log unit,Nc1c(cccc1)c1ccccc1,aniline,18,?C
NC1=C(Cl)C=C(C=C1Cl)[N+]([O-])=O,"2,6-DICHLORO-4-NITROANILINE",-2.55,Log unit,Nc1c(cc([N+](=O)[O-])cc1Cl)Cl,aniline,20,?C
CC1=CC(=CC(C)=C1N)[N+]([O-])=O,"2,6-DIMETHYL-4-NITROBENZENAMINE",0.98,Log unit,Nc1c(cc([N+](=O)[O-])cc1C)C,aniline,22,?C
NC1=C(Cl)C=CC(Cl)=C1,"2,5-Dichloroaniline",2.05,Log unit,Nc1c(Cl)ccc(c1)Cl,aniline,25,?C
NC1=C(C=C(C=C1)[N+]([O-])=O)[N+]([O-])=O,"2,4-Dinitroaniline",-4.25,Log unit,Nc1c([N+](=O)[O-])cc(cc1)[N+](=O)[O-],aniline,25,?C
NC1=C(C=C(Cl)C=C1)[N+]([O-])=O,4-CHLORO-2-NITROANILINE,-1.02,Log unit,Nc1c([N+](=O)[O-])cc(cc1)Cl,aniline,25,?C
NC1=C(Cl)C=C(C=C1)[N+]([O-])=O,2-Chloro-4-nitroaniline,-0.94,Log unit,Nc1c(cc([N+](=O)[O-])cc1)Cl,aniline,25,?C
NC1=C(F)C(F)=C(F)C(F)=C1F,"2,3,4,5,6-PENTAFLUOROANILINE",-0.28,Log unit,Nc1c(c(c(F)c(c1F)F)F)F,aniline,25,?C
NC1=C(Cl)C=CC=C1Cl,"2,6-DICHLOROANILINE",0.422,Log unit,Nc1c(Cl)cccc1Cl,aniline,25,?C
COC1=CC(=C(N)C=C1)[N+]([O-])=O,"BENZENAMINE, 4-METHOXY-2-NITRO-",0.77,Log unit,Nc1c([N+](=O)[O-])cc(cc1)OC,aniline,25,?C
CC1=C(N)C=CC(=C1)[N+]([O-])=O,4-NITRO-2-TOLUIDINE,1.04,Log unit,Nc1c(cc([N+](=O)[O-])cc1)C,aniline,25,?C
NC1=CC=CC(Cl)=C1Cl,"2,3-DICHLOROANILINE",1.761,Log unit,Nc1c(Cl)c(ccc1)Cl,aniline,25,?C
NC1=C(Cl)C=C(Cl)C=C1,"2,4-dichloroaniline",2,Log unit,Nc1c(Cl)cc(cc1)Cl,aniline,25,?C
CCOC(=O)C1=C(N)C=CC=C1,"O-AMINOBENZOIC ACID, ETHYL ESTER",2.18,Log unit,Nc1c(cccc1)C(=O)OCC,aniline,25,?C
COC(=O)C1=C(N)C=CC=C1,METHYL ANTHRANILATE,2.23,Log unit,Nc1c(cccc1)C(=O)OC,aniline,25,?C
CC1=C(N)C=C(C=C1)[N+]([O-])=O,5-NITRO-2-TOLUIDINE,2.345,Log unit,Nc1cc([N+](=O)[O-])ccc1C,aniline,25,?C
CC1=C(C)C(=C(C)C(C)=C1N)[N+]([O-])=O,"2,3,5,6-TETRAMETHYL-4-NITROBENZENAMINE",2.36,Log unit,Nc1c(c(c([N+](=O)[O-])c(c1C)C)C)C,aniline,25,?C
COC1=C(N)C=C(C=C1)[N+]([O-])=O,2-METHOXY-5-NITROANILINE,2.49,Log unit,Nc1cc([N+](=O)[O-])ccc1OC,aniline,25,?C
NC1=C(Br)C=CC=C1,o-Bromoaniline,2.53,Log unit,Nc1c(Br)cccc1,aniline,25,?C
NC1=C(I)C=CC=C1,2-Iodoaniline,2.6,Log unit,Nc1c(I)cccc1,aniline,25,?C
NC1=C(C=CC=C1[N+]([O-])=O)[N+]([O-])=O,"2,6-Dinitroaniline",-5,Log unit,Nc1c([N+](=O)[O-])cccc1[N+](=O)[O-],aniline,,-
NC1=C(Cl)C=C(Cl)C=C1Cl,"2,4,6-trichloroaniline",-0.03,Log unit,Nc1c(Cl)cc(cc1Cl)Cl,aniline,,-
NC1=CC(Cl)=C(Cl)C=C1Cl,"2,4,5-Trichloroaniline",1.09,Log unit,Nc1cc(c(Cl)cc1Cl)Cl,aniline,,-
COC1=CC(N)=C(OC)C=C1,"2,5-DIMETHOXYANILINE",3.93,Log unit,Nc1c(ccc(c1)OC)OC,aniline,,-
C[C@H](O)C(O)=O,Lactic acid,3.86,Log unit,OC(=O)C(O)C,aliph. carboxylic acid,20,?C
COC1=CC2=C(C=C1)N(C(=O)C1=CC=C(Cl)C=C1)C(C)=C2CC(O)=O,Indomethacin,4.5,Log unit,OC(=O)Cc1c2c(n(C(=O)c3ccc(Cl)cc3)c1C)ccc(c2)OC,aliph. carboxylic acid,,-
NC1=CC=C(C=C1)C(=O)NCC(O)=O,N-(4-AMINOBENZOYL)-GLYCINE,3.8,Log unit,OC(=O)CNC(=O)c1ccc(cc1)N,aliph. carboxylic acid,,-
CC1(C)S[C@@H]2[C@H](NC(=O)CC3=CC=CC=C3)C(=O)N2[C@@H]1C(O)=O,Benzylpenicillin,2.74,Log unit,OC(=O)C1N2C(SC1(C)C)C(C2=O)NC(=O)Cc1ccccc1,aliph. carboxylic acid,25,?C
COC1=CC=CC(OC)=C1C(=O)N[C@H]1[C@H]2SC(C)(C)[C@H](N2C1=O)C(O)=O,Methicillin,2.77,Log unit,OC(=O)C1N2C(SC1(C)C)C(C2=O)NC(=O)c1c(cccc1OC)OC,aliph. carboxylic acid,,-
OC(=O)CI,IODO-ACETIC ACID,3.15,Log unit,OC(=O)CI,aliph. carboxylic acid,,-
CC(O)=O,acetic acid,4.76,Log unit,OC(=O)C,aliph. carboxylic acid,25,?C
OC(=O)CS,Mercaptoacetic acid,3.55,Log unit,OC(=O)CS,aliph. carboxylic acid,,-
CC(Cl)(Cl)C(O)=O,DALAPON,1.79,Log unit,OC(=O)C(Cl)(Cl)C,aliph. carboxylic acid,,-
CC(C)(C)C(O)=O,"2,2-Dimethyl propanoic acid",5.031,Log unit,OC(=O)C(C)(C)C,aliph. carboxylic acid,25,?C
OC(=O)C(O)(C1=CC=CC=C1)C1=CC=CC=C1,benzilic acid,3.05,Log unit,OC(=O)C(O)(c1ccccc1)c1ccccc1,aliph. carboxylic acid,18,?C
OC(=O)C(F)(F)F,Trifluoroacetic acid,0.52,Log unit,OC(=O)C(F)(F)F,aliph. carboxylic acid,25,?C
OC(=O)C(Cl)(Cl)Cl,TRICHLOROACETIC ACID,0.512,Log unit,OC(=O)C(Cl)(Cl)Cl,aliph. carboxylic acid,,-
C[C@@]12[C@H]3[C@H](C(O)=O)[C@@]45CC(=C)[C@@](O)(C4)CC[C@H]5[C@]3(OC1=O)C=C[C@@H]2O,gibberellic acid,4,Log unit,OC(=O)C1C2[C@@]3(OC(=O)[C@@]2(C(C=C3)O)C)C2[C@@]31C[C@@](CC2)(C(=C)C3)O,aliph. carboxylic acid,,-
OC(=O)C(Cl)Cl,DICHLOROACETIC ACID,1.26,Log unit,OC(=O)C(Cl)Cl,aliph. carboxylic acid,,-
CC(C)C(O)=O,isobutyric acid,4.84,Log unit,OC(=O)C(C)C,aliph. carboxylic acid,20,?C
OCC(O)=O,hydroxyacetic acid,3.83,Log unit,OC(=O)CO,aliph. carboxylic acid,,-
OC(=O)CCl,chloroacetic acid,2.866,Log unit,OC(=O)CCl,aliph. carboxylic acid,25,?C
CCC(O)=O,Propionic Acid,4.875,Log unit,OC(=O)CC,aliph. carboxylic acid,,-
OC(=O)CBr,Bromoacetic Acid,2.89,Log unit,OC(=O)CBr,aliph. carboxylic acid,20,?C
C[C@H](CCC(O)=O)[C@@H]1CC[C@@H]2[C@@H]3[C@H](O)C[C@H]4C[C@H](O)CC[C@]4(C)[C@H]3C[C@@H](O)[C@@]12C,cholic acid,4.98,Log unit,OC(=O)CCC(C1[C@@]2(C(O)CC3C(C2CC1)C(CC1[C@@]3(CCC(C1)O)C)O)C)C,aliph. carboxylic acid,20,?C
OC(=O)CC1=C(Cl)C=CC(Cl)=C1Cl,Fenac,3.7,Log unit,OC(=O)Cc1c(Cl)c(ccc1Cl)Cl,aliph. carboxylic acid,25,?C
OC(=O)CC1=CC=CC2=C1C=CC=C2,NAPHTHALENEACETIC ACID,4.23,Log unit,OC(=O)Cc1c2c(ccc1)cccc2,aliph. carboxylic acid,25,?C
OC(=O)CC1=CNC2=C1C=CC=C2,indole-3-acetic acid,4.75,Log unit,OC(=O)Cc1c2c([nH]c1)cccc2,aliph. carboxylic acid,,-
CC1(C)S[C@@H]2[C@H](NC(=O)COC3=CC=CC=C3)C(=O)N2[C@@H]1C(O)=O,Phenoxymethylpenicillin,2.79,Log unit,OC(=O)C1N2C(SC1(C)C)C(C2=O)NC(=O)COc1ccccc1,aliph. carboxylic acid,,-
CCC(CC)C(O)=O,2-ethylbutyric acid,4.71,Log unit,OC(=O)C(CC)CC,aliph. carboxylic acid,20,?C
O[C@H](C(O)=O)C1=CC=CC=C1,A-HYDROXYPHENYLACETIC ACID,3.41,Log unit,OC(=O)C(O)c1ccccc1,aliph. carboxylic acid,25,?C
OC(=O)COC1=CC(Cl)=C(Cl)C=C1Cl,"2,4,5-trichlorophenoxyacetic acid",2.833,Log unit,OC(=O)COc1cc(c(Cl)cc1Cl)Cl,aliph. carboxylic acid,25,?C
C[C@H](OC1=CC(Cl)=C(Cl)C=C1Cl)C(O)=O,Silvex,2.84,Log unit,OC(=O)C(Oc1cc(c(Cl)cc1Cl)Cl)C,aliph. carboxylic acid,,-
OC(=O)CCCOC1=C(Cl)C=C(Cl)C=C1,"4-(2,4-DICHLOROPHENOXY)BUTYRIC ACID",4.95,Log unit,OC(=O)CCCOc1c(Cl)cc(cc1)Cl,aliph. carboxylic acid,25,?C
COC(=O)C1=CC=NC=C1,"I-NICOTINIC ACID, METHYL ESTER",3.26,Log unit,n1ccc(cc1)C(=O)OC,pyridine (meta/para),22,?C
ClC1=CC(Cl)=CN=C1,"3,5-Dichloropyridine",0.67,Log unit,n1cc(Cl)cc(c1)Cl,pyridine (meta/para),25,?C
OC(=O)C1=CC(=CN=C1)C(O)=O,DINICOTINIC ACID,1.1,Log unit,n1cc(cc(c1)C(=O)O)C(=O)O,pyridine (meta/para),25,?C
ClC1=CN=CC=C1,3-chloropyridine,2.84,Log unit,n1cc(Cl)ccc1,pyridine (meta/para),25,?C
FC1=CN=CC=C1,3-FLUOROPYRIDINE,2.97,Log unit,n1cc(F)ccc1,pyridine (meta/para),25,?C
CC(=O)C1=CN=CC=C1,3-ACETYLPYRIDINE,3.18,Log unit,n1cc(ccc1)C(=O)C,pyridine (meta/para),25,?C
IC1=CN=CC=C1,3-IODOPYRIDINE,3.25,Log unit,n1cc(I)ccc1,pyridine (meta/para),25,?C
OC(=O)C1=CN=CC=C1,nicotinic acid,2.07,Log unit,n1cc(ccc1)C(=O)O,pyridine (meta/para),25,?C
OCC1=CN=CC=C1,3-pyridinemethanol,4.9,Log unit,n1cc(ccc1)CO,pyridine (meta/para),25,?C
OCC1=CC=NC=C1,4-Pyridinemethanol,5.33,Log unit,n1ccc(cc1)CO,pyridine (meta/para),25,?C
OCCCC1=CN=CC=C1,3-Pyridinepropanol,5.47,Log unit,n1cc(ccc1)CCCO,pyridine (meta/para),25,?C
CCC1=CN=CC=C1,3-ETHYLPYRIDINE,5.56,Log unit,n1cc(ccc1)CC,pyridine (meta/para),25,?C
C(C1=CC=CC=C1)C1=CC=NC=C1,4-Benzylpyridine,5.59,Log unit,n1ccc(cc1)Cc1ccccc1,pyridine (meta/para),25,?C
OCCC1=CC=NC=C1,4-Pyridineethanol,5.6,Log unit,n1ccc(cc1)CCO,pyridine (meta/para),25,?C
C=CC1=CC=NC=C1,4-VINYLPYRIDINE,5.62,Log unit,n1ccc(cc1)C=C,pyridine (meta/para),25,?C
CC1=CN=CC=C1,3-METHYLPYRIDINE,5.63,Log unit,n1cc(ccc1)C,pyridine (meta/para),25,?C
OCCCC1=CC=NC=C1,4-Pyridinepropanol,5.84,Log unit,n1ccc(cc1)CCCO,pyridine (meta/para),25,?C
CCC1=CC=NC=C1,4-ETHYLPYRIDINE,5.87,Log unit,n1ccc(cc1)CC,pyridine (meta/para),25,?C
CC1=CC=NC=C1,4-Methylpyridine,5.98,Log unit,n1ccc(cc1)C,pyridine (meta/para),25,?C
CC(C)(C)C1=CC=NC=C1,4-(TERT-BUTYL)PYRIDINE,5.99,Log unit,n1ccc(cc1)C(C)(C)C,pyridine (meta/para),25,?C
CCCC1=CC=NC=C1,4-Propylpyridine,6.05,Log unit,n1ccc(cc1)CCC,pyridine (meta/para),25,?C
CC1=CC(C)=CN=C1,"3,5-dimethylpyridine",6.15,Log unit,n1cc(cc(c1)C)C,pyridine (meta/para),25,?C
CC1=CC=NC=C1C,"3,4-dimethylpyridine",6.46,Log unit,n1cc(c(cc1)C)C,pyridine (meta/para),25,?C
COC1=CC=NC=C1,4-METHOXYPYRIDINE,6.47,Log unit,n1ccc(cc1)OC,pyridine (meta/para),25,?C
CN(C)CCC1=CN=CC=C1,"N,N-DIME-2-(3-PYRIDYL)ETHYLAMINE",4.3,Log unit,n1cc(CCN(C)C)ccc1,pyridine (meta/para),25,?C
C1CC[C@H](NC1)C1=CN=CC=C1,Anabasine,3.21,Log unit,n1cc(C2NCCCC2)ccc1,pyridine (meta/para),30,?C
N#CC1=CC=NC=C1,4-Cyanopyridine,1.9,Log unit,n1ccc(cc1)C#N,pyridine (meta/para),,-
CN1CCC[C@H]1C1=CN=CC=C1,Nicotine,3.1,Log unit,n1cc(C2N(CCC2)C)ccc1,pyridine (meta/para),,-
CCN(CC)C(=O)C1=CN=CC=C1,NIKETHAMIDE,3.5,Log unit,n1cc(C(=O)N(CC)CC)ccc1,pyridine (meta/para),,-
OC(=O)\C=C\C(=O)C1=CN=CC=C1,(E)-3-NICOTINOYLACRYLIC ACID,3.82,Log unit,n1cc(ccc1)C(=O)C=CC(=O)O,pyridine (meta/para),,-
C1=CC=C(C=C1)C1=CN=CC=C1,3-Phenylpyridine,4.8,Log unit,n1cc(ccc1)c1ccccc1,pyridine (meta/para),,-
OC(=O)C1=CC=NC=C1,ISONICOTINIC ACID,1.7,Log unit,n1ccc(cc1)C(=O)O,pyridine (meta/para),,-
C1=CC=NC=C1,pyridine,5.229,Log unit,n1ccccc1,pyridine (meta/para),,-
C1=CC=C(C=C1)C1=CC=NC=C1,4-Phenylpyridine,5.55,Log unit,n1ccc(cc1)c1ccccc1,pyridine (meta/para),,-
NCC1=CN=CC=C1,3-PYRIDINEMETHANEAMINE,5.96,Log unit,n1cc(CN)ccc1,pyridine (meta/para),,-
[O-][N+](=O)C1=CN=CC=C1,3-Nitropyridine,1.18,Log unit,n1cc([N+](=O)[O-])ccc1,pyridine (meta/para),25,?C
OC1=CN=CC=C1,3-hydroxypyridine,4.8,Log unit,n1cc(ccc1)O,pyridine (meta/para),20,?C
COC1=CN=CC=C1,3-METHYOXYPYRIDINE,4.91,Log unit,n1cc(ccc1)OC,pyridine (meta/para),25,?C
CCN1CCOCC1,4-ETHYLMORPHOLINE,7.67,Log unit,N1(CCOCC1)CC,amine (tertiary),15,?C
C[C@@H](CN1C[C@H](C)O[C@H](C)C1)CC1=CC=C(C=C1)C(C)(C)C,Fenpropimorph,6.98,Log unit,N1(CC(OC(C1)C)C)CC(Cc1ccc(cc1)C(C)(C)C)C,amine (tertiary),20,?C
CCN(C)C,ETHYL DIMETHYLAMINE,10.16,Log unit,N(CC)(C)C,amine (tertiary),20,?C
CCCCN(C)C,Dimethylbutylamine,10.19,Log unit,N(CCCC)(C)C,amine (tertiary),20,?C
CN1CCOCC1,n-methylmorpholine,7.38,Log unit,N1(CCOCC1)C,amine (tertiary),25,?C
CN(C)CC1=CN=CC=C1,"N,N-DIMETHYL-3-PYRIDYLMETHYLAMINE",8,Log unit,N(Cc1cnccc1)(C)C,amine (tertiary),25,?C
C=CCN(CC=C)CC=C,"2-Propen-1-amine, N,N-di-2-propenyl-",8.31,Log unit,N(CC=C)(CC=C)CC=C,amine (tertiary),25,?C
CN(C)CCC1=CC=CC=N1,"2-PYRIDINEETHANAMINE, N,N-DIMETHYL-",8.75,Log unit,N(CCc1ncccc1)(C)C,amine (tertiary),25,?C
C(CC1=CN=CC=C1)N1CCCCC1,3-PYRIDYLETHYL-2-N-PIPERIDINE,8.81,Log unit,N1(CCCCC1)CCc1cnccc1,amine (tertiary),25,?C
CN(C)CCC1=CN=CC=C1,"N,N-DIME-2-(3-PYRIDYL)ETHYLAMINE",8.86,Log unit,N(CCc1cnccc1)(C)C,amine (tertiary),25,?C
CN(C)CC1=CC=CC=C1,"N,N-DIMETHYLBENZYLAMINE",8.91,Log unit,N(Cc1ccccc1)(C)C,amine (tertiary),25,?C
CCC(=O)C(C[C@@H](C)N(C)C)(C1=CC=CC=C1)C1=CC=CC=C1,Methadone,8.94,Log unit,N(C(CC(c1ccccc1)(c1ccccc1)C(=O)CC)C)(C)C,amine (tertiary),25,?C
CN(C)CC[C@H](C1=CC=C(Cl)C=C1)C1=CC=CC=N1,Chlorpheniramine,9.13,Log unit,N(CCC(c1ccc(Cl)cc1)c1ncccc1)(C)C,amine (tertiary),25,?C
C(CC1=CN=CC=C1)N1CCCC1,3-PYRIDYLETHYL-2-(N-PYRROLIDINE),9.28,Log unit,N1(CCCC1)CCc1cnccc1,amine (tertiary),25,?C
CN1CCCCC1,n-methylpiperidine,10.08,Log unit,N1(CCCCC1)C,amine (tertiary),25,?C
CN1CCCC1,1-METHYL-PYRROLIDINE,10.32,Log unit,N1(CCCC1)C,amine (tertiary),25,?C
CCN(CC)CC,triethylamine,10.78,Log unit,N(CC)(CC)CC,amine (tertiary),25,?C
CCCN1CCCCC1,1-PROPYLPIPERIDINE,10.41,Log unit,N1(CCCCC1)CCC,amine (tertiary),27,?C
CN1C(C)(C)CCCC1(C)C,"Piperidine, 1,2,2,6,6-pentamethyl-",11.25,Log unit,N1(C(CCCC1(C)C)(C)C)C,amine (tertiary),30,?C
CN1CCC[C@H]1C1=CN=CC=C1,Nicotine,8.18,Log unit,N1(C(CCC1)c1cnccc1)C,amine (tertiary),,-
CCN(CCCl)CCCl,BIS(2-CHLOROETHYL)ETHYLAMINE,6.57,Log unit,N(CCCl)(CCCl)CC,amine (tertiary),,-
COC(=O)C1=CCCN(C)C1,arecoline,7.16,Log unit,N1(CCC=C(C1)C(=O)OC)C,amine (tertiary),,-
CC(C)C1=C(OCCN(C)C)C=C(C)C=C1,"ETHANAMINE, N,N-DIMETHYL-2-[5-METHYL-2-(1-METHYL",8.66,Log unit,N(CCOc1c(ccc(c1)C)C(C)C)(C)C,amine (tertiary),,-
CC(C)C1=C(OCCN(C)C)C=C(C)C(OC(C)=O)=C1,MOXISYLYTE,8.72,Log unit,N(CCOc1c(cc(c(c1)C)OC(=O)C)C(C)C)(C)C,amine (tertiary),,-
C[C@@H]1CCCCN1CCCOC(=O)C1=CC(Cl)=C(Cl)C=C1,PIPERALIN,8.9,Log unit,N1(CCCOC(=O)c2ccc(c(Cl)c2)Cl)C(CCCC1)C,amine (tertiary),,-
CN(C)CCO[C@H](C1=CC=CC=C1)C1=C(C)C=CC=C1,Orphenadrine,8.91,Log unit,N(CCOC(c1c(cccc1)C)c1ccccc1)(C)C,amine (tertiary),,-
CN(C)CCOC(C1=CC=CC=C1)C1=CC=CC=C1,diphenhydramine,8.98,Log unit,N(CCOC(c1ccccc1)c1ccccc1)(C)C,amine (tertiary),,-
CN(C)C,trimethylamine,9.801,Log unit,N(C)(C)C,amine (tertiary),,-
C[C@@H](CN1CCCCC1)CC1=CC=C(C=C1)C(C)(C)C,Fenpropidin,10.1,Log unit,N1(CCCCC1)CC(Cc1ccc(cc1)C(C)(C)C)C,amine (tertiary),,-
CCCN(CCC)CCC,tripropylamine,10.65,Log unit,N(CCC)(CCC)CCC,amine (tertiary),,-
CCCCN(CCCC)CCCC,TRI N-BUTYLAMINE,10.89,Log unit,N(CCCC)(CCCC)CCCC,amine (tertiary),,-
CNCCC1=CC=CC=C1,"Benzeneethanamine, N-methyl-",10.08,Log unit,N(CCc1ccccc1)C,amine (secondary),20,?C
CCNCC,Diethylamine,11.09,Log unit,N(CC)CC,amine (secondary),20,?C
C1CCNCC1,piperidine,11.28,Log unit,N1CCCCC1,amine (secondary),20,?C
CCCCNCCCC,DIBUTYLAMINE,11.39,Log unit,N(CCCC)CCCC,amine (secondary),21,?C
C1COCCN1,morpholine,8.492,Log unit,N1CCOCC1,amine (secondary),25,?C
C=CCNCC=C,diallylamine,9.29,Log unit,N(CC=C)CC=C,amine (secondary),25,?C
CNCC1=CC=CC=C1,N-Methylbenzylamine,9.54,Log unit,N(Cc1ccccc1)C,amine (secondary),25,?C
CCNCC1=CC=CC=C1,"BENZENEMETHANAMINE, N-ETHYL-",9.64,Log unit,N(CC)Cc1ccccc1,amine (secondary),25,?C
CNC[C@H](C)C1=CC=CC=C1,"BENZENEETHANAMINE, N,b-DIMETHYL-",9.87,Log unit,N(CC(c1ccccc1)C)C,amine (secondary),25,?C
CN[C@H](C)CC1=CC=CC=C1,methamphetamine,9.87,Log unit,N(C(Cc1ccccc1)C)C,amine (secondary),25,?C
CCCCNC,Methylbutylamine,10.9,Log unit,N(CCCC)C,amine (secondary),25,?C
CCCNCCC,dipropylamine,11,Log unit,N(CCC)CCC,amine (secondary),25,?C
C1CCCNCC1,HEXAMETHYLENEIMINE,11.07,Log unit,N1CCCCCC1,amine (secondary),25,?C
CC(C)NC(C)C,DIISOPROPYLAMINE,11.07,Log unit,N(C(C)C)C(C)C,amine (secondary),25,?C
CC1(C)CCCC(C)(C)N1,"PIPERIDINE, 2,2,6,6-TETRAMETHYL-",11.07,Log unit,N1C(CCCC1(C)C)(C)C,amine (secondary),25,?C
C[C@@H]1CCCCN1,2-METHYLPIPERIDINE,11.08,Log unit,N1C(CCCC1)C,amine (secondary),25,?C
C1CNC1,AZETIDINE,11.29,Log unit,N1CCC1,amine (secondary),25,?C
C1CCNC1,pyrrolidine,11.31,Log unit,N1CCCC1,amine (secondary),25,?C
C1CC[C@H](NC1)C1=CN=CC=C1,Anabasine,8.7,Log unit,N1C(CCCC1)c1cnccc1,amine (secondary),30,?C
C1CN[C@@H](C1)C1=CC=CC=C1,"PYRROLIDINE, 2-PHENYL-",9.4,Log unit,N1C(CCC1)c1ccccc1,amine (secondary),,-
CNC,DIMETHYLAMINE,10.73,Log unit,N(C)C,amine (secondary),,-
CCC[C@@H]1CCCCN1,2-Propylpiperidine,11,Log unit,N1C(CCCC1)CCC,amine (secondary),,-
C1CCC(CC1)NC1CCCCC1,DICYCLOHEXYLAMINE,10.4,Log unit,N(C1CCCCC1)C1CCCCC1,amine (secondary),,-
N[C@H]1CCC2=C(C1)C=CC=C2,"2-NAPHTHALENAMINE, 1,2,3,4-TETRAHYDRO-",9.93,Log unit,NC1CCc2c(cccc2)C1,amine (primary),17,?C
NCCC1=CC=CC=C1,2-phenylethylamine,9.96,Log unit,NCCc1ccccc1,amine (primary),19,?C
C[C@@H](N)CC1=CC=CC=C1,"BENZENEETHANAMINE, A-METHYL-, (R)-",10.13,Log unit,NC(Cc1ccccc1)C,amine (primary),20,?C
CCCN,Propylamine,10.708,Log unit,NCCC,amine (primary),20,?C
CCCCN,n-Butylamine,10.777,Log unit,NCCCC,amine (primary),20,?C
CCN,Ethylamine,10.87,Log unit,NCC,amine (primary),20,?C
NC1CCCCC1,Cyclohexanamine,10.63,Log unit,NC1CCCCC1,amine (primary),23,?C
NCC1=CC=CC=C1,benzylamine,9.33,Log unit,NCc1ccccc1,amine (primary),25,?C
BrC1=CN=C2C=CC=CC2=C1,3-Bromoquinoline,2.69,Log unit,n1cc(Br)cc2c1cccc2,quinoline,25,?C
ClC1=CC2=C(C=C1)C(Cl)=CC=N2,"QUINOLINE, 4,7-DICHLORO-",2.8,Log unit,n1c2c(c(Cl)cc1)ccc(c2)Cl,quinoline,25,?C
ClC1=CC=CC2=CC=CN=C12,8-Chloroquinoline,3.12,Log unit,n1c2c(Cl)cccc2ccc1,quinoline,25,?C
FC1=CC=CC2=CC=CN=C12,8-FLUOROQUINOLINE,3.34,Log unit,n1c2c(F)cccc2ccc1,quinoline,25,?C
ClC1=CC2=C(C=C1)N=CC=C2,6-Chloroquinoline,3.85,Log unit,n1c2c(cc(Cl)cc2)ccc1,quinoline,25,?C
BrC1=CC2=NC=CC=C2C=C1,7-Bromoquinoline,3.87,Log unit,n1c2cc(Br)ccc2ccc1,quinoline,25,?C
BrC1=CC2=C(C=C1)N=CC=C2,6-Bromoquinoline,3.87,Log unit,n1c2c(cc(Br)cc2)ccc1,quinoline,25,?C
CC1=CC2=CC=C(C)N=C2C=C1,"2,6-Dimethylquinoline",6.1,Log unit,n1c2c(cc(cc2)C)ccc1C,quinoline,25,?C
CC1=NC2=C(C=CC=C2)C(C)=C1,"2,4-dimethylquinoline",5.12,Log unit,n1c2c(c(cc1C)C)cccc2,quinoline,25,?C
OC1=CC2=C(C=CC=C2)N=C1,3-QUINOLINOL,4.28,Log unit,n1c2c(cc(c1)O)cccc2,quinoline,20,?C
OC1=CC=CC2=C1N=CC=C2,8-quinolinol,5.017,Log unit,n1c2c(ccc1)cccc2O,quinoline,20,?C
OC1=CC=C(Cl)C2=C1N=CC=C2,"8-QUINOLINOL,5-CHLORO-",3.56,Log unit,n1c2c(c(Cl)ccc2O)ccc1,quinoline,25,?C
COC1=CC=CC2=C1N=CC=C2,8-Methoxyquinoline,5.01,Log unit,n1c2c(ccc1)cccc2OC,quinoline,,-
CC1=NC2=C(C=CC=C2O)C=C1,2-METHYL 8-QUINOLONOL,5.55,Log unit,n1c2c(ccc1C)cccc2O,quinoline,,-
CC1=CC=NC2=C1C=CC=C2O,4-Methyl-8-quinolinol,5.56,Log unit,n1c2c(c(cc1)C)cccc2O,quinoline,,-
CCCCC[C@@H](C)OC(=O)COC1=CC=C(Cl)C2=C1N=CC=C2,Cloquintocet-mexyl,3.75,Log unit,n1c2c(c(Cl)ccc2OCC(=O)OC(CCCCC)C)ccc1,quinoline,,-
CN1C=NC(=C1)[N+]([O-])=O,1-METHYL-4-NITRO-IH-IMIDAZOLE,-0.53,Log unit,n1c([N+](=O)[O-])cn(c1)C,(benz-) imidazole,20,?C
[O-][N+](=O)C1=CNC=N1,4-Nitroimidazole,-0.05,Log unit,n1c([N+](=O)[O-])c[nH]c1,(benz-) imidazole,20,?C
CN1C=NC=C1[N+]([O-])=O,1-METHYL-5-NITROIMIDAZOLE,2.13,Log unit,n1cn(c([N+](=O)[O-])c1)C,(benz-) imidazole,25,?C
CC(=O)N1C=CN=C1,"1H-IMIDAZOLE, 1-ACETYL-",3.6,Log unit,n1cn(cc1)C(=O)C,(benz-) imidazole,25,?C
CCCOC\C(=N/C1=C(C=C(Cl)C=C1)C(F)(F)F)N1C=CN=C1,Triflumizole,3.7,Log unit,n1cn(C(=Nc2c(C(F)(F)F)cc(cc2)Cl)COCCC)cc1,(benz-) imidazole,25,?C
N1C=CN=C1C1=CC=CC=C1,"1H-Imidazole, 2-phenyl-",6.48,Log unit,n1c([nH]cc1)c1ccccc1,(benz-) imidazole,25,?C
CN1C=CN=C1,"1H-IMIDAZOLE, 1-METHYL-",6.95,Log unit,n1cn(cc1)C,(benz-) imidazole,25,?C
N1C=CN=C1,Imidazole,6.953,Log unit,n1c[nH]cc1,(benz-) imidazole,25,?C
CC1=NC=CN1,"1H-Imidazole, 2-methyl-",7.851,Log unit,n1c([nH]cc1)C,(benz-) imidazole,25,?C
CN1C=NC=C1C[C@@H](NC(=O)CCN)C(O)=O,Anserine,7.04,Log unit,n1cn(c(c1)CC(NC(=O)CCN)C(=O)O)C,(benz-) imidazole,,-
CCCN(CCOC1=C(Cl)C=C(Cl)C=C1Cl)C(=O)N1C=CN=C1,Prochloraz,3.8,Log unit,n1cn(C(=O)N(CCOc2c(Cl)cc(cc2Cl)Cl)CCC)cc1,(benz-) imidazole,,-
OC[C@H]1O[C@@H](C[C@H]1O)N1C=NC2=C1N=CNC[C@H]2O,Pentostatin,5.2,Log unit,n1cn(c2c1C(CNC=N2)O)C1OC(C(C1)O)CO,(benz-) imidazole,,-
C(N1C=CN=C1)C1=CC=CC=C1,"1H-Imidazole, 1-(phenylmethyl)-",6.7,Log unit,n1cn(cc1)Cc1ccccc1,(benz-) imidazole,,-
CC[C@H]1[C@@H](CC2=CN=CN2C)COC1=O,Pilocarpol,6.78,Log unit,n1cn(c(c1)CC1COC(=O)C1CC)C,(benz-) imidazole,,-
CN\C(NC#N)=N\CCSCC1=C(C)N=CN1,Cimetidine,6.8,Log unit,n1c[nH]c(CSCCN=C(NC)NC#N)c1C,(benz-) imidazole,,-