Smiles,Name,pKa,pKa Unit,Ionizable center smiles,IC group,Temperature,Temperature Unit
OC(=O)C1(CCC1)C(O)=O,"1,1-CYCLOBUTANEDICARBOXYLICACID",3.13,Log unit,OC(=O)C1(CCC1)C(=O)O,,,-
OC(=O)CC1(CC(O)=O)CCCCC1,"1,1-CYCLOHEXANEDIACETICACID",3.49,Log unit,OC(=O)CC1(CCCCC1)CC(=O)O,,,-
OC(=O)C1(CCCCC1)C(O)=O,"1,1-CYCLOHEXANEDICARBOXYLICACID",3.45,Log unit,OC(=O)C1(CCCCC1)C(=O)O,,,-
OC(=O)C1=CC=C(C=C1)C#N,p-Cyanobenzoic acid,3.55,Log unit,OC(=O)c1ccc(C#N)cc1,benzoic acid (meta/para subs.),20,?C
CCC1=CC=C(C=C1)C(O)=O,4-ETHYLBENZOIC ACID,4.35,Log unit,OC(=O)c1ccc(cc1)CC,benzoic acid (meta/para subs.),25,?C
OC(=O)C1=CC=C(I)C=C1,4-iodobenzoic acid,3.997,Log unit,OC(=O)c1ccc(I)cc1,benzoic acid (meta/para subs.),25,?C
OC(=O)C1=CC(C=O)=CC=C1,3-FORMYLBENZOIC ACID,3.84,Log unit,OC(=O)c1cc(ccc1)C=O,benzoic acid (meta/para subs.),25,?C
NC1=C(N)C=C(C=C1)C(O)=O,"3,4-DIAMINO-BENZOIC ACID",3.49,Log unit,OC(=O)c1ccc(c(N)c1)N,benzoic acid (meta/para subs.),25,?C
COC1=CC(=CC(OC)=C1)C(O)=O,"3,5-DIMETHOXYBENZOIC ACID",3.97,Log unit,OC(=O)c1cc(cc(OC)c1)OC,benzoic acid (meta/para subs.),25,?C
OC(=O)C1=CC=CC(=C1)C#N,m-Cyanobenzoic acid,3.6,Log unit,OC(=O)c1cc(C#N)ccc1,benzoic acid (meta/para subs.),20,?C
OC(=O)C1=CC=C(OC2=CC=CC=C2)C=C1,p-Phenoxybenzoic acid,4.52,Log unit,OC(=O)c1ccc(Oc2ccccc2)cc1,benzoic acid (meta/para subs.),,-
OC(=O)C1=CC=CC(OC2=CC=CC=C2)=C1,M-PHENOXYBENZOIC ACID,3.92,Log unit,OC(=O)c1cc(Oc2ccccc2)ccc1,benzoic acid (meta/para subs.),,-
CS(=O)(=O)C1=CC=C(C=C1)C(O)=O,p-Methylsulfonylbenzoic acid,3.64,Log unit,OC(=O)c1ccc(S(=O)(=O)C)cc1,benzoic acid (meta/para subs.),,-
CCCOC1=CC=C(C=C1)C(O)=O,4-PROPOXYBENZOIC ACID,4.46,Log unit,OC(=O)c1ccc(OCCC)cc1,benzoic acid (meta/para subs.),20,?C
NCC(=O)NC1=CC=C(C=C1)C(O)=O,4-[(ACETYLAMINO)AMINO]-BENZOIC ACID,4.2,Log unit,OC(=O)c1ccc(NC(=O)CN)cc1,benzoic acid (meta/para subs.),,-
OC1=C(C=C(C=C1)[N+]([O-])=O)[N+]([O-])=O,"2,4-dinitrophenol",4.09,Log unit,Oc1c([N+](=O)[O-])cc(cc1)[N+](=O)[O-],"phenol (ortho subs., pot. int. H-bond)",25,?C
OC1=C(Cl)C=C(Cl)C(Cl)=C1Cl,"2,3,4,6-Tetrachlorophenol",5.22,Log unit,Oc1c(c(Cl)c(cc1Cl)Cl)Cl,"phenol (ortho subs., pot. int. H-bond)",,-
OC1=CC=CC(=C1[N+]([O-])=O)[N+]([O-])=O,"2,3-DINITROPHENOL",4.96,Log unit,Oc1c([N+](=O)[O-])c(ccc1)[N+](=O)[O-],"phenol (ortho subs., pot. int. H-bond)",25,?C
OC1=C(Cl)C(Cl)=C(Cl)C(Cl)=C1Cl,Pentachlorophenol,4.7,Log unit,Oc1c(c(c(Cl)c(c1Cl)Cl)Cl)Cl,"phenol (ortho subs., pot. int. H-bond)",25,?C
OC1=C(Cl)C=CC=C1Cl,"2,6-Dichlorophenol",6.79,Log unit,Oc1c(Cl)cccc1Cl,"phenol (ortho subs., pot. int. H-bond)",,-
CC1=CC=CC(Cl)=C1O,2-METHYL-6-CHLOROPHENOL,8.69,Log unit,Oc1c(Cl)cccc1C,"phenol (ortho subs., pot. int. H-bond)",20,?C
OC1=C(C=C(C=C1[N+]([O-])=O)[N+]([O-])=O)[N+]([O-])=O,"2,4,6-TRINITROPHENOL",0.38,Log unit,Oc1c([N+](=O)[O-])cc(cc1[N+](=O)[O-])[N+](=O)[O-],"phenol (ortho subs., pot. int. H-bond)",25,?C
OC1=C(C=C(Cl)C=C1[N+]([O-])=O)[N+]([O-])=O,"4-CHLORO-2,6-DINITROPHENOL",2.96,Log unit,Oc1c([N+](=O)[O-])cc(cc1[N+](=O)[O-])Cl,"phenol (ortho subs., pot. int. H-bond)",25,?C
CC[C@@H](C)C1=CC(=CC(=C1O)[N+]([O-])=O)[N+]([O-])=O,"2-SEC-BUTYL-4,6-DINITROPHENOL",4.62,Log unit,Oc1c([N+](=O)[O-])cc(cc1C(CC)C)[N+](=O)[O-],"phenol (ortho subs., pot. int. H-bond)",,-
OC1=C(C=CC=C1)[N+]([O-])=O,2-nitrophenol,7.23,Log unit,Oc1c([N+](=O)[O-])cccc1,"phenol (ortho subs., pot. int. H-bond)",25,?C
CC(C)C1=C(O)C=CC=C1,2-Isopropylphenol,10.47,Log unit,Oc1c(cccc1)C(C)C,"phenol (ortho subs., pot. int. H-bond)",20,?C
CC(C)(C)C1=C(O)C=CC=C1,2-t-Butylphenol,10.28,Log unit,Oc1c(cccc1)C(C)(C)C,"phenol (ortho subs., pot. int. H-bond)",,-
OC1=C(Cl)C=C(Cl)C=C1Cl,"2,4,6-trichlorophenol",6.23,Log unit,Oc1c(Cl)cc(cc1Cl)Cl,"phenol (ortho subs., pot. int. H-bond)",25,?C
CC(C)C1=C(O)C=C(C)C=C1,thymol,10.62,Log unit,Oc1c(ccc(c1)C)C(C)C,"phenol (ortho subs., pot. int. H-bond)",20,?C
CC(C)C1=CC(Cl)=C(C)C=C1O,Chlorothymol,9.98,Log unit,Oc1cc(c(Cl)cc1C(C)C)C,"phenol (ortho subs., pot. int. H-bond)",20,?C
OC1=C(C=C(Cl)C=C1)[N+]([O-])=O,4-chloro-2-nitrophenol,6.458,Log unit,Oc1c([N+](=O)[O-])cc(cc1)Cl,"phenol (ortho subs., pot. int. H-bond)",25,?C
OC1=C(C=CC=C1)C1=CC=CC=C1,2-phenylphenol,9.92,Log unit,Oc1c(cccc1)c1ccccc1,"phenol (ortho subs., pot. int. H-bond)",25,?C
COC1=C(O)C=CC=C1,2-Methoxyphenol,9.98,Log unit,Oc1c(OC)cccc1,"phenol (ortho subs., pot. int. H-bond)",,-
CCC1=C(O)C=CC=C1,2-Ethylphenol,10.2,Log unit,Oc1c(cccc1)CC,"phenol (ortho subs., pot. int. H-bond)",25,?C
COC1=C(O)C=CC(C)=C1,4-Methyl-2-methoxyphenol,10.28,Log unit,Oc1c(OC)cc(cc1)C,"phenol (ortho subs., pot. int. H-bond)",25,?C
CCOC1=C(O)C=CC=C1,2-Ethoxyphenol,10.11,Log unit,Oc1c(OCC)cccc1,"phenol (ortho subs., pot. int. H-bond)",25,?C
OC1=CC(Cl)=C(Cl)C=C1Cl,"2,4,5-trichlorophenol",7.4,Log unit,Oc1cc(c(Cl)cc1Cl)Cl,"phenol (ortho subs., pot. int. H-bond)",20,?C
CC1=CC(O)=C(C)C=C1,"2,5-Dimethylphenol",10.41,Log unit,Oc1c(ccc(c1)C)C,"phenol (ortho subs., pot. int. H-bond)",25,?C
OC1=C(Cl)C=CC=C1,2-chlorophenol,8.56,Log unit,Oc1c(Cl)cccc1,"phenol (ortho subs., pot. int. H-bond)",,-
OC1=C(Br)C=CC=C1,2-Bromophenol,8.452,Log unit,Oc1c(Br)cccc1,"phenol (ortho subs., pot. int. H-bond)",25,?C
NC1=C(O)C=CC=C1,2-aminophenol,9.75,Log unit,Oc1c(N)cccc1,"phenol (ortho subs., pot. int. H-bond)",20,?C
CC1=C(O)C=CC=C1,2-Cresol,10.28,Log unit,Oc1c(cccc1)C,"phenol (ortho subs., pot. int. H-bond)",25,?C
CC(C)(C)C1=CC(=C(O)C=C1)C(C)(C)C,"2,4-DI-T-BUTYLPHENOL",11.72,Log unit,Oc1c(cc(cc1)C(C)(C)C)C(C)(C)C,"phenol (ortho subs., pot. int. H-bond)",20,?C
COC1=C(O)C=CC(\C=C\C)=C1,2-METHOXY-4-(1-PROPENYL)PHENOL,9.88,Log unit,Oc1c(OC)cc(cc1)C=CC,"phenol (ortho subs., pot. int. H-bond)",25,?C
COC1=C(O)C=CC(CC=C)=C1,eugenol,10.19,Log unit,Oc1c(OC)cc(cc1)CC=C,"phenol (ortho subs., pot. int. H-bond)",25,?C
CC(C)(C)C1=CC(Cl)=C(O)C=C1,4-(TERT-BUTYL)-2-CHLOROPHENOL,8.58,Log unit,Oc1c(Cl)cc(cc1)C(C)(C)C,"phenol (ortho subs., pot. int. H-bond)",25,?C
CC1=C(O)C=CC(=C1)C(C)(C)C,4-(T-BUTYL)-2-CRESOL,10.59,Log unit,Oc1c(cc(cc1)C(C)(C)C)C,"phenol (ortho subs., pot. int. H-bond)",20,?C
NC1=C(O)C=CC(=C1)[N+]([O-])=O,2-amino-4-nitrophenol,7.6,Log unit,Oc1c(cc([N+](=O)[O-])cc1)N,"phenol (ortho subs., pot. int. H-bond)",25,?C
OC1=C(Br)C=C(C=C1Br)[N+]([O-])=O,"2,6-Dibromo-4-nitrophenol",3.39,Log unit,Oc1c(cc([N+](=O)[O-])cc1Br)Br,"phenol (ortho subs., pot. int. H-bond)",25,?C
CC1=CC(C)=C(O)C=C1,"2,4-Dimethylphenol",10.6,Log unit,Oc1c(cc(cc1)C)C,"phenol (ortho subs., pot. int. H-bond)",25,?C
OC1=C(Br)C=C(Br)C=C1Br,"2,4,6-Tribromophenol",6.8,Log unit,Oc1c(Br)cc(cc1Br)Br,"phenol (ortho subs., pot. int. H-bond)",25,?C
NC1=CC(=C(O)C=C1)[N+]([O-])=O,4-AMINO-2-NITRO-PHENOL,7.81,Log unit,Oc1c([N+](=O)[O-])cc(cc1)N,"phenol (ortho subs., pot. int. H-bond)",25,?C
CC1=CC(=C(O)C=C1)[N+]([O-])=O,4-methyl-2-nitrophenol,7.4,Log unit,Oc1c([N+](=O)[O-])cc(cc1)C,"phenol (ortho subs., pot. int. H-bond)",25,?C
OC1=C(Cl)C=C(Cl)C=C1,"2,4-dichlorophenol",7.892,Log unit,Oc1c(Cl)cc(cc1)Cl,"phenol (ortho subs., pot. int. H-bond)",,-
COC1=C(O)C=CC(C=O)=C1,Vanillin,7.396,Log unit,Oc1c(OC)cc(cc1)C=O,"phenol (ortho subs., pot. int. H-bond)",25,?C
CC(C)(C)C1=CC=CC(=C1O)C(C)(C)C,"2,6-DI-T-BUTYLPHENOL",11.7,Log unit,Oc1c(cccc1C(C)(C)C)C(C)(C)C,"phenol (ortho subs., pot. int. H-bond)",25,?C
CC1=CC(=C(O)C(=C1)C(C)(C)C)C(C)(C)C,"2,6-DI-T-BUTYL-4-METHYLPHENOL (BHT)",12.23,Log unit,Oc1c(cc(cc1C(C)(C)C)C)C(C)(C)C,"phenol (ortho subs., pot. int. H-bond)",,-
OC1=C(C=C(C=C1C1CCCCC1)[N+]([O-])=O)[N+]([O-])=O,"2-CYCLOHEXYL-4,6-DINITROPHENOL",4.52,Log unit,Oc1c([N+](=O)[O-])cc(cc1C1CCCCC1)[N+](=O)[O-],"phenol (ortho subs., pot. int. H-bond)",25,?C
OC1=C(C=CC(=C1)[N+]([O-])=O)[N+]([O-])=O,"2,5-Dinitrophenol",5.21,Log unit,Oc1c([N+](=O)[O-])ccc(c1)[N+](=O)[O-],"phenol (ortho subs., pot. int. H-bond)",25,?C
OC1=C(F)C=CC=C1,2-Fluorophenol,8.7,Log unit,Oc1c(F)cccc1,"phenol (ortho subs., pot. int. H-bond)",25,?C
OC1=C(C=CC(F)=C1)[N+]([O-])=O,5-fluoro-2-nitrophenol,6.07,Log unit,Oc1c([N+](=O)[O-])ccc(c1)F,"phenol (ortho subs., pot. int. H-bond)",25,?C
CC1=CC(C)=C(O)C=C1C,"2,4,5-TRIMETHYLPHENOL",10.57,Log unit,Oc1c(cc(c(c1)C)C)C,"phenol (ortho subs., pot. int. H-bond)",25,?C
CC1=CC=CC(O)=C1C,"2,3-DIMETHYLPHENOL",10.544,Log unit,Oc1c(c(ccc1)C)C,"phenol (ortho subs., pot. int. H-bond)",25,?C
CC1=CC(C)=C(O)C(C)=C1,"2,4,6-Trimethylphenol",10.86,Log unit,Oc1c(cc(cc1C)C)C,"phenol (ortho subs., pot. int. H-bond)",25,?C
OC1=C(I)C=CC=C1,2-IODOPHENOL,8.513,Log unit,Oc1c(I)cccc1,"phenol (ortho subs., pot. int. H-bond)",25,?C
CC1=CC(=CC(=C1O)[N+]([O-])=O)[N+]([O-])=O,"4,6-DINITRO-O-CRESOL",4.31,Log unit,Oc1c([N+](=O)[O-])cc(cc1C)[N+](=O)[O-],"phenol (ortho subs., pot. int. H-bond)",21,?C
COC1=C(O)C=CC(CCN)=C1,2-METHYLDOPAMINE,9.54,Log unit,Oc1c(cc(CCN)cc1)OC,"phenol (ortho subs., pot. int. H-bond)",,-
OC1=C(C=CC=C1[N+]([O-])=O)[N+]([O-])=O,"2,6-Dinitrophenol",3.965,Log unit,Oc1c([N+](=O)[O-])cccc1[N+](=O)[O-],"phenol (ortho subs., pot. int. H-bond)",25,?C
CC1=CC=CC(C)=C1O,"2,6-Dimethylphenol",10.62,Log unit,Oc1c(cccc1C)C,"phenol (ortho subs., pot. int. H-bond)",,-
OC1=CC=CC(Cl)=C1Cl,"2,3-Dichlorophenol",7.7,Log unit,Oc1c(Cl)c(ccc1)Cl,"phenol (ortho subs., pot. int. H-bond)",,-
OC1=C(Cl)C=CC(Cl)=C1,"2,5-Dichlorophenol",7.51,Log unit,Oc1c(Cl)ccc(c1)Cl,"phenol (ortho subs., pot. int. H-bond)",,-
OC1=C(C=CC=C1Cl)[N+]([O-])=O,6-CHLORO-2-NITROPHENOL,5.483,Log unit,Oc1c([N+](=O)[O-])cccc1Cl,"phenol (ortho subs., pot. int. H-bond)",25,?C
OC1=C(Br)C(Br)=C(Br)C(Br)=C1Br,pentabromophenol,4.62,Log unit,Oc1c(c(c(Br)c(c1Br)Br)Br)Br,"phenol (ortho subs., pot. int. H-bond)",,-
OC1=C(Br)C=CC=C1Br,"2,6-DIBROMOPHENOL",6.67,Log unit,Oc1c(Br)cccc1Br,"phenol (ortho subs., pot. int. H-bond)",25,?C
CC1=CC(=C(O)C(=C1)[N+]([O-])=O)[N+]([O-])=O,"2,6-dinitro-p-cresol",4.231,Log unit,Oc1c([N+](=O)[O-])cc(cc1[N+](=O)[O-])C,"phenol (ortho subs., pot. int. H-bond)",25,?C
OC1=C(C=CC=C1)C#N,2-Cyanophenol,6.86,Log unit,Oc1c(C#N)cccc1,"phenol (ortho subs., pot. int. H-bond)",25,?C
OC1=C(C=CC(Cl)=C1)[N+]([O-])=O,5-CHLORO-2-NITROPHENOL,6.05,Log unit,Oc1c([N+](=O)[O-])ccc(c1)Cl,"phenol (ortho subs., pot. int. H-bond)",25,?C
OC1=C(Br)C=C(Br)C=C1,"2,4-Dibromophenol",7.79,Log unit,Oc1c(Br)cc(cc1)Br,"phenol (ortho subs., pot. int. H-bond)",25,?C
OC1=C(Cl)C=C(C=C1Cl)[N+]([O-])=O,"2,6-Dichloro-4-nitrophenol",3.55,Log unit,Oc1c(cc([N+](=O)[O-])cc1Cl)Cl,"phenol (ortho subs., pot. int. H-bond)",25,?C
OC1=C(Cl)C=C(C=C1)[N+]([O-])=O,2-chloro-4-nitrophenol,5.45,Log unit,Oc1c(cc([N+](=O)[O-])cc1)Cl,"phenol (ortho subs., pot. int. H-bond)",25,?C
COC1=C(O)C=C(C=O)C=C1,Isovanillin,8.889,Log unit,Oc1c(OC)ccc(c1)C=O,"phenol (ortho subs., pot. int. H-bond)",25,?C
CCCC1=C(O)C=CC=C1,2-PROPYLPHENOL,10.47,Log unit,Oc1c(cccc1)CCC,"phenol (ortho subs., pot. int. H-bond)",25,?C
CC1=CC(O)=C(C)C(C)=C1,"2,3,5-Trimethylphenol",10.67,Log unit,Oc1c(c(cc(c1)C)C)C,"phenol (ortho subs., pot. int. H-bond)",25,?C
CC1=CC(O)=C(C=C1)[N+]([O-])=O,5-Methyl-2-nitrophenol,7.41,Log unit,Oc1c([N+](=O)[O-])ccc(c1)C,"phenol (ortho subs., pot. int. H-bond)",25,?C
OC1=C(C=C(C=C1C1=CC=CC=C1)[N+]([O-])=O)[N+]([O-])=O,"2,4-DINITRO-6-PHENYLPHENOL",3.848,Log unit,Oc1c([N+](=O)[O-])cc(cc1c1ccccc1)[N+](=O)[O-],"phenol (ortho subs., pot. int. H-bond)",25,?C
CC(C)(C)C1=CC(=C(O)C(=C1)C(C)(C)C)C(C)(C)C,"2,4,6-TRI(TERT-BUTYL)PHENOL",12.19,Log unit,Oc1c(cc(cc1C(C)(C)C)C(C)(C)C)C(C)(C)C,"phenol (ortho subs., pot. int. H-bond)",25,?C
OC1=C(F)C(F)=C(F)C(F)=C1F,Pentafluorophenol,5.53,Log unit,Oc1c(c(c(F)c(c1F)F)F)F,"phenol (ortho subs., pot. int. H-bond)",25,?C
OC1=C(C=C(C=C1)C1=CC=CC=C1)[N+]([O-])=O,4-PHENYL-2-NITROPHENOL,6.73,Log unit,Oc1c([N+](=O)[O-])cc(cc1)c1ccccc1,"phenol (ortho subs., pot. int. H-bond)",25,?C
OC1=C(Cl)C=CC(Cl)=C1Cl,"2,3,6-Trichlorophenol",5.8,Log unit,Oc1c(Cl)c(ccc1Cl)Cl,"phenol (ortho subs., pot. int. H-bond)",,-
OC1=C(Cl)C(Cl)=CC(Cl)=C1Cl,"2,3,5,6-Tetrachlorophenol",5.14,Log unit,Oc1c(Cl)c(cc(c1Cl)Cl)Cl,"phenol (ortho subs., pot. int. H-bond)",,-
OC1=C(C=C(C=C1Cl)[N+]([O-])=O)[N+]([O-])=O,"6-CHLORO-2,4-DINITROPHENOL",2.1,Log unit,Oc1c([N+](=O)[O-])cc(cc1Cl)[N+](=O)[O-],"phenol (ortho subs., pot. int. H-bond)",25,?C
COC1=CC(=C(O)C=C1)[N+]([O-])=O,4-METHOXY-2-NITROPHENOL,7.31,Log unit,Oc1c([N+](=O)[O-])cc(cc1)OC,"phenol (ortho subs., pot. int. H-bond)",25,?C
CC1=C(O)C=CC(Cl)=C1,2-Methyl-4-chlorophenol,9.71,Log unit,Oc1c(cc(Cl)cc1)C,"phenol (ortho subs., pot. int. H-bond)",25,?C
OC1=C(Br)C=C(C=C1Br)C#N,bromoxynil,3.86,Log unit,Oc1c(Br)cc(cc1Br)C#N,"phenol (ortho subs., pot. int. H-bond)",,-
CC1=CC(=C(O)C(C)=C1)C(C)(C)C,"2-(1,1-DIMETHYLETHYL)-4,6-DIMETHYLPHENOL",12.04,Log unit,Oc1c(cc(cc1C)C)C(C)(C)C,"phenol (ortho subs., pot. int. H-bond)",20,?C
CC(C)C1=CC=CC(C(C)C)=C1O,"2,6-BIS(1-METHYLETHYL)-PHENOL",11.1,Log unit,Oc1c(cccc1C(C)C)C(C)C,"phenol (ortho subs., pot. int. H-bond)",20,?C
CC1=CC(=C(O)C=C1)C(C)(C)C,2-(TERT-BUTYL)-4-METHYLPHENOL,11.72,Log unit,Oc1c(cc(cc1)C)C(C)(C)C,"phenol (ortho subs., pot. int. H-bond)",20,?C
CC1=CC(=CC(C)=C1O)[N+]([O-])=O,"2,6-DIMETHYL-4-NITROPHENOL",7.07,Log unit,Oc1c(cc([N+](=O)[O-])cc1C)C,"phenol (ortho subs., pot. int. H-bond)",25,?C
CC1=CC(Cl)=C(O)C(Cl)=C1,"4-METHYL-2,6-DICHLOROPHENOL",7.19,Log unit,Oc1c(Cl)cc(cc1Cl)C,"phenol (ortho subs., pot. int. H-bond)",25,?C
OC1=C(Cl)C=C(Br)C=C1Cl,"4-Bromo-2,6-dichlorophenol",6.21,Log unit,Oc1c(cc(Br)cc1Cl)Cl,"phenol (ortho subs., pot. int. H-bond)",25,?C
CC[C@@H](C)C1=CC(=C(O)C=C1)[N+]([O-])=O,4-(SEC-BUTYL)-2-NITROPHENOL,7.59,Log unit,Oc1c([N+](=O)[O-])cc(cc1)C(CC)C,"phenol (ortho subs., pot. int. H-bond)",21,?C
OC(=O)C1=CC(Cl)=C(O)C=C1,3-CHLORO-4-HYDROXYBENZOIC ACID,7.52,Log unit,OC(=O)c1ccc(c(Cl)c1)O,"phenol (ortho subs., pot. int. H-bond)",25,?C
OC1=C(Cl)C(Cl)=C(Cl)C(Cl)=C1,"2,3,4,5-Tetrachlorophenol",6.35,Log unit,Oc1cc(c(c(Cl)c1Cl)Cl)Cl,"phenol (ortho subs., pot. int. H-bond)",,-
CC1=C(CC(O)=O)C2=CC(F)=CC=C2\C1=C\C1=CC=C(C=C1)[S@](C)=O,Sulindac,4.7,Log unit,OC(=O)CC1=C(C(=Cc2ccc(cc2)S(=O)C)c2c1cc(F)cc2)C,aliph. carboxylic acid,,-
C[C@@H](C(O)=O)C1=CC=C(C=C1)C(=O)C1=CC=CS1,Suprofen,3.91,Log unit,OC(=O)C(c1ccc(C(=O)c2sccc2)cc1)C,aliph. carboxylic acid,,-
C[C@H](OC1=CC=C(OC2=C(Cl)C=C(Cl)C=C2)C=C1)C(O)=O,DICLOFOP,3.43,Log unit,OC(=O)C(Oc1ccc(Oc2c(Cl)cc(cc2)Cl)cc1)C,aliph. carboxylic acid,,-
OC(=O)CC1=CN(N=C1C1=CC=C(Cl)C=C1)C1=CC=CC=C1,Lonazolac,4.3,Log unit,OC(=O)Cc1c(c2ccc(Cl)cc2)nn(c1)c1ccccc1,aliph. carboxylic acid,,-
OC(=O)COC1=NC(Cl)=C(Cl)C=C1Cl,TRICLOPYR,2.68,Log unit,OC(=O)COc1nc(Cl)c(cc1Cl)Cl,aliph. carboxylic acid,,-
OC(=O)CC1=CC2=C(C=C1)C(=O)C1=CC=CC=C1CS2,TIOPINAC,3.71,Log unit,OC(=O)Cc1cc2SCc3c(C(=O)c2cc1)cccc3,aliph. carboxylic acid,,-
C[C@@H](N(C(=O)C1=CC=CC=C1)C1=CC(Cl)=C(F)C=C1)C(O)=O,Flamprop,3.72,Log unit,OC(=O)C(N(c1cc(Cl)c(F)cc1)C(=O)c1ccccc1)C,aliph. carboxylic acid,20,?C
C[C@H](OC1=CC=C(OC2=NC=C(C=C2)C(F)(F)F)C=C1)C(O)=O,Fluazifop,3.12,Log unit,OC(=O)C(Oc1ccc(Oc2ncc(C(F)(F)F)cc2)cc1)C,aliph. carboxylic acid,20,?C
C[C@H](OC1=CC=C(OC2=NC=C(C=C2Cl)C(F)(F)F)C=C1)C(O)=O,HALOXYFOP,2.9,Log unit,OC(=O)C(Oc1ccc(Oc2ncc(C(F)(F)F)cc2Cl)cc1)C,aliph. carboxylic acid,,-
OC(=O)[C@@H]1CCN2C1=CC=C2C(=O)C1=CC=CC=C1,Ketorolac,3.49,Log unit,OC(=O)C1c2n(c(cc2)C(=O)c2ccccc2)CC1,aliph. carboxylic acid,,-
OC(=O)COC1=CC(=C(Cl)C=C1)[N+]([O-])=O,4-chloro-3-nitro-phenoxyacetic acid,2.96,Log unit,OC(=O)COc1ccc(c([N+](=O)[O-])c1)Cl,aliph. carboxylic acid,25,?C
OC(=O)C1CC(=O)C(=C(O)C2CC2)C(=O)C1,TRINEXAPAC,5.32,Log unit,OC(=O)C1CC(=O)C(=C(O)C2CC2)C(=O)C1,aliph. carboxylic acid,,-
CC1=CC(=O)OC2=C1C=CC(O[C@@H]1O[C@@H]([C@@H](O)[C@H](O)[C@H]1O)C(O)=O)=C2,4-Methyl-umbelliferyl b-D-glucuronide,2.82,Log unit,OC(=O)C1OC(Oc2cc3oc(=O)cc(c3cc2)C)C(O)C(O)C1O,aliph. carboxylic acid,25,?C
CC1=CC(O)=C(C=C1)C(O)=O,4-METHYLSALICYLIC ACID,3.4,Log unit,OC(=O)c1c(O)cc(cc1)C,benzoic acid (ortho subs.),25,?C
OC(=O)C1=C(Cl)C=C(Cl)C=C1,"2,4-DICHLOROBENZOIC ACID",2.68,Log unit,OC(=O)c1c(Cl)cc(cc1)Cl,benzoic acid (ortho subs.),25,?C
OC(=O)C1=C(Cl)C=CC(Cl)=C1,"2,5-DICHLOROBENZOIC ACID",2.466,Log unit,OC(=O)c1c(Cl)ccc(c1)Cl,benzoic acid (ortho subs.),25,?C
CC(=O)OC1=C(C=CC=C1)C(O)=O,Acetylsalicylic acid,3.49,Log unit,OC(=O)c1c(OC(=O)C)cccc1,benzoic acid (ortho subs.),25,?C
OC(=O)C1=C(Cl)C=CC(Cl)=C1Cl,"2,3,6-TRICHLOROBENZOIC ACID",1.5,Log unit,OC(=O)c1c(Cl)c(ccc1Cl)Cl,benzoic acid (ortho subs.),25,?C
OC(=O)C1=C(Cl)C=CC=C1Cl,"2,6-DICHLOROBENZOIC ACID",1.59,Log unit,OC(=O)c1c(Cl)cccc1Cl,benzoic acid (ortho subs.),25,?C
CCOC1=C(C=CC(N)=C1)C(O)=O,2-Ethoxy-4-aminobenzoic acid,5.09,Log unit,OC(=O)c1c(cc(N)cc1)OCC,benzoic acid (ortho subs.),,-
CC1=CC=CC(NC2=C(C=CC=C2)C(O)=O)=C1C,mefenamic acid,4.2,Log unit,OC(=O)c1c(Nc2c(c(ccc2)C)C)cccc1,benzoic acid (ortho subs.),,-
NC1=CC(O)=C(C=C1)C(O)=O,P-AMINOSALICYLIC ACID,3.66,Log unit,OC(=O)c1c(cc(N)cc1)O,benzoic acid (ortho subs.),25,?C
OC(=O)C1=C(O)C=CC=C1,Salicylic acid,2.97,Log unit,OC(=O)c1c(O)cccc1,benzoic acid (ortho subs.),,-
CC1=C(O)C(=CC=C1)C(O)=O,3-METHYLSALICYLIC ACID,2.95,Log unit,OC(=O)c1c(O)c(ccc1)C,benzoic acid (ortho subs.),25,?C
OC(=O)C1=C(I)C=CC=C1,2-IODOBENZOIC ACID,2.93,Log unit,OC(=O)c1c(I)cccc1,benzoic acid (ortho subs.),20,?C
OC(=O)C1=C(Br)C=CC=C1,O-BROMOBENZOIC ACID,2.88,Log unit,OC(=O)c1c(Br)cccc1,benzoic acid (ortho subs.),20,?C
OC(=O)C1=C(O)C=C(O)C=C1,"2,4-Dihydroxybenzoic Acid",3.11,Log unit,OC(=O)c1c(O)cc(cc1)O,benzoic acid (ortho subs.),25,?C
CC1=CC(C(O)=O)=C(O)C=C1,5-METHYLSALICYLIC ACID,3.15,Log unit,OC(=O)c1c(O)ccc(c1)C,benzoic acid (ortho subs.),25,?C
OC(=O)C1=C(O)C=CC(Br)=C1,5-Bromosalicylic acid,2.66,Log unit,OC(=O)c1c(O)ccc(Br)c1,benzoic acid (ortho subs.),25,?C
CC(=O)NC1=C(C=CC=C1)C(O)=O,N-ACETYL O-AMINOBENZOIC ACID,3.4,Log unit,OC(=O)c1c(NC(=O)C)cccc1,benzoic acid (ortho subs.),,-
COC1=CC(OC)=C(C=C1)C(O)=O,"2,4-DIMETHOXYBENZOIC ACID",4.36,Log unit,OC(=O)c1c(OC)cc(cc1)OC,benzoic acid (ortho subs.),25,?C
OC(=O)C1=C(NC2=CC=CC=C2)C=CC=C1,N-PHENYL O-AMINOBENZOIC ACID,3.99,Log unit,OC(=O)c1c(Nc2ccccc2)cccc1,benzoic acid (ortho subs.),,-
OC(=O)C1=C(O)C=C2C=CC=CC2=C1,"2-NAPHTHALENECARBOXYLIC ACID, 3-HYDROXY-",2.79,Log unit,OC(=O)c1c(O)cc2c(c1)cccc2,benzoic acid (ortho subs.),25,?C
OC(=O)C1=C(O)C=CC(=C1)[N+]([O-])=O,5-Nitrosalicylic acid,2.12,Log unit,OC(=O)c1cc([N+](=O)[O-])ccc1O,benzoic acid (ortho subs.),25,?C
OC(=O)C1=C(Cl)C=C(C=C1)[N+]([O-])=O,2-CHLORO-4-NITRO-BENZOIC ACID,2.14,Log unit,OC(=O)c1c(cc([N+](=O)[O-])cc1)Cl,benzoic acid (ortho subs.),,-
NC1=C(C=CC=C1)C(O)=O,2-aminobenzoic acid,4.95,Log unit,OC(=O)c1c(N)cccc1,benzoic acid (ortho subs.),,-
OC(=O)C1=C(Cl)C=CC=C1,2-Chlorobenzoic Acid,2.89,Log unit,OC(=O)c1c(Cl)cccc1,benzoic acid (ortho subs.),25,?C
CC1=C(C=CC=C1)C(O)=O,o-toluic acid,3.98,Log unit,OC(=O)c1c(cccc1)C,benzoic acid (ortho subs.),20,?C
OC(=O)C1=C(O)C=CC(I)=C1,2-HYDROXY-5-IODO-BENZOIC ACID,2.619,Log unit,OC(=O)c1cc(I)ccc1O,benzoic acid (ortho subs.),25,?C
OC(=O)C1=C(C=C(C=C1[N+]([O-])=O)[N+]([O-])=O)[N+]([O-])=O,"2,4,6-TRINITROBENZOIC ACID",0.654,Log unit,OC(=O)c1c([N+](=O)[O-])cc(cc1[N+](=O)[O-])[N+](=O)[O-],benzoic acid (ortho subs.),25,?C
OC(=O)C1=CC(I)=CC(I)=C1O,"3,5-diiodosalicylic acid",2.299,Log unit,OC(=O)c1c(c(I)cc(c1)I)O,benzoic acid (ortho subs.),25,?C
NC1=C(Cl)C(=CC(Cl)=C1)C(O)=O,"3-Amino-2,5-dichlorobenzoic acid",3.4,Log unit,OC(=O)c1c(Cl)c(cc(c1)Cl)N,benzoic acid (ortho subs.),,-
OC(=O)C1=CC=CC(O)=C1O,"2,3-DIHYDROXYBENZOIC ACID",2.914,Log unit,OC(=O)c1c(O)c(ccc1)O,benzoic acid (ortho subs.),25,?C
OC(=O)C1=C(O)C=CC=C1O,"2,6-Dihydroxybenzoic Acid",1.051,Log unit,OC(=O)c1c(O)cccc1O,benzoic acid (ortho subs.),25,?C
OC(=O)C1=C(O)C=CC(Cl)=C1,5-CHLOROSALICYLIC ACID,2.65,Log unit,OC(=O)c1cc(Cl)ccc1O,benzoic acid (ortho subs.),25,?C
OC(=O)C1=C(F)C=CC=C1,2-FLUOROBENZOIC ACID,3.27,Log unit,OC(=O)c1c(F)cccc1,benzoic acid (ortho subs.),25,?C
OC(=O)C1=C(O)C=CC(O)=C1,"2,5-Dihydroxybenzoic acid",2.951,Log unit,OC(=O)c1c(O)ccc(c1)O,benzoic acid (ortho subs.),25,?C
OC(=O)C1=C(C=CC=C1)[N+]([O-])=O,2-NITROBENZOIC ACID,2.17,Log unit,OC(=O)c1c([N+](=O)[O-])cccc1,benzoic acid (ortho subs.),20,?C
CC(=O)C1=C(C=CC=C1)C(O)=O,O-ACETYLBENZOIC ACID,4.126,Log unit,OC(=O)c1c(cccc1)C(=O)C,benzoic acid (ortho subs.),25,?C
COC1=C(C=CC=C1)C(O)=O,o-Methoxybenzoic Acid,3.9,Log unit,OC(=O)c1c(OC)cccc1,benzoic acid (ortho subs.),25,?C