Smiles,Name,pKa,pKa Unit,Ionizable center smiles,IC group,Temperature,Temperature Unit
CN(C)C1=CC=C(C=C1)N=NC1=CC=C(I)C=C1,4-dimethylamino-4'-iodoazobenzene,2.06,Log unit,N(c1ccc(N=Nc2ccc(I)cc2)cc1)(C)C,nr2,25,?C
COC(=O)C1=CC=C(C=C1)N=NC1=CC=C(C=C1)N(C)C,4-dimethylamino-4'-methoxycarbonylazobenzene,2.6,Log unit,N(c1ccc(cc1)N=Nc1ccc(C(=O)OC)cc1)(C)C,nr2,25,?C
CN(C)C1=CC=C(C=C1)N=NC1=CC=C(C)C=C1,4-dimethylamino-4'-methyl-azobenzene,2.31,Log unit,N(c1ccc(N=Nc2ccc(cc2)C)cc1)(C)C,nr2,25,?C
CN(C)C1=CC=C(C=C1)N=NC1=CC=C(C=C1)N(=O)=O,4-dimethylamino-4'-nitroazobenzene,1.81,Log unit,N(=O)(=O)c1ccc(N=Nc2ccc(N(C)C)cc2)cc1,nr2,25,?C
CNC1=CC=C(C=C1SC)N=N,4-methylamino-3-methylmercaptoazobenzene,2.03,Log unit,N(c1c(SC)cc(cc1)N=N)C,nr2,25,?C
CNC1=C(C)C=C(C=C1)N=N,3-methyl-4-methylaminoazobenzene,2.94,Log unit,N(c1ccc(cc1C)N=N)C,nr2,25,?C
CC(N)CCC1=CC=CC=C1,(3-amino)butylbenzene,9.79,Log unit,NC(CCc1ccccc1)C,nr2,25,?C
NCCCCC1=CC=CC=C1,(4-amino)butylbenzene,10.36,Log unit,NCCCCc1ccccc1,nr2,25,?C
CC(N)C1=CC=CC=C1,(1-aminoethyl)benzene,9.35,Log unit,NC(c1ccccc1)C,nr2,25,?C
NCCC1=CC=CC=C1,(2-Aminoethyl)benzene,9.835,Log unit,NCCc1ccccc1,nr2,25,?C
NCCC1=CC=C([O-])C(O)=C1,"1-(2-amino)ethyl-3,4-dihydroxybenzene",10.63,Log unit,NCCc1ccc([O-])c(O)c1,nr2,25,?C
NCCC1=CC=C(O)C=C1,1-(2-amino)ethyl-4-hydroxybenzene,9.7,Log unit,Oc1ccc(CCN)cc1,oh,25,?C
NCCC1=CC=C([O-])C=C1,1-(2-amino)ethyl-4-hydroxybenzene,10.9,Log unit,NCCc1ccc([O-])cc1,nr2,25,?C
CC(CN)C1=CC=CC=C1,(2-amino-1-hydroxy)ethylbenzene,8.9,Log unit,NCC(c1ccccc1)C,nr2,25,?C
NCC(O)C1=CC=C(O)C(O)=C1,"1-(2-amino-1-hydroxy)ethyl-3,4-dihydroxybenzene",8.9,Log unit,NCC(c1ccc(O)c(O)c1)O,nr2,25,?C
NCC(O)C1=CC=CC(O)=C1,1-(2-amino-1-hydroxy)ethyl-3-hydroxybenzene,9.5,Log unit,NCC(c1cccc(O)c1)O,nr2,25,?C
NCC(O)C1=CC=C(O)C=C1,1-(2-amino-1-hydroxy)ethyl-4-hydroxybenzene,9.549999,Log unit,NCC(c1ccc(O)cc1)O,nr2,25,?C
CC(N)C(O)C1=CC=CC=C1,(2-amino-1-hydroxy)propylbenzene,9.44,Log unit,NC(C(c1ccccc1)O)C,nr2,25,?C
CC(CN)C1=CC=CC=C1,(2-amino)isopropylbenzene,10.325,Log unit,NCC(c1ccccc1)C,nr2,25,?C
CC(CCN)C1=CC=CC=C1,(2-aminomethyl)isopropylbenzene,10.08,Log unit,NCCC(c1ccccc1)C,nr2,25,?C
NCCCCCC1=CC=CC=C1,(5-amino)pentylbenzene,10.44,Log unit,NCCCCCc1ccccc1,nr2,25,?C
CC(N)CCCC1=CC=C(O)C=C1,1-(4-amino)pentyl-4-hydroxybenzene,9.4,Log unit,NC(CCCc1ccc(O)cc1)C,nr2,25,?C
CC(N)CC1=CC=CC=C1,(2-amino)propylbenzene,10.08,Log unit,NC(Cc1ccccc1)C,nr2,25,?C
NCCCC1=CC=CC=C1,(3-amino)propylbenzene,10.16,Log unit,NCCCc1ccccc1,nr2,25,?C
CC(N)CC1=CC=C(O)C(O)=C1,"1-(2-amino)propyl-3,4-dimethoxybenzene",9.6,Log unit,NC(Cc1ccc(O)c(O)c1)C,nr2,25,?C
COC1=CC=C(CC(C)N)C=C1,1-(2-amino)propyl-4-methoxybenzene,9.53,Log unit,NC(Cc1ccc(cc1)OC)C,nr2,25,?C
CC(N)CC1=CC=C2OCOC2=C1,"1-(2-amino)propyl-3,4-methylenedioxybenzene",9.67,Log unit,NC(Cc1ccc2OCOc2c1)C,nr2,25,?C
CCC(CN(C)C)(CN(C)C)OC(=O)C1=CC=CC=C1,[1-(bisdimethylaminomethyl)propoxycarbonyl]benzene,8.85,Log unit,N(CC(OC(=O)c1ccccc1)(CC)CN(C)C)(C)C,nr2,25,?C
CCN(CC)CCOC(=O)C1=CC=C(Br)C=C1,1-bromo-4-diethylaminoethoxycarbonylbenzene,8.12,Log unit,N(CCOC(=O)c1ccc(Br)cc1)(CC)CC,nr2,25,?C
CCCCOC1=CC(=CC=C1)C(=O)OCCN(CC)CC,1-n-butoxy-3-diethylaminoethoxycarbonylbenzene,8.11,Log unit,N(CCOC(=O)c1cccc(c1)OCCCC)(CC)CC,nr2,25,?C
CCCCOC1=CC=C(C=C1)C(=O)OCCN1CCCCC1,1-n-butoxy-4-piperidylethoxycarbonylbenzene,8.3,Log unit,N1(CCCCC1)CCOC(=O)c1ccc(OCCCC)cc1,nr2,25,?C
CCN(CC)CCOC(=O)C1=CC=C(Cl)C=C1,1-chloro-4-diethylaminoethoxycarbonylbenzene,8.08,Log unit,N(CCOC(=O)c1ccc(Cl)cc1)(CC)CC,nr2,25,?C
CC(CC1=CC=CC=C1)NCCC#N,2-(N-(2-cyano)ethyl)aminopropylbenzene,7.23,Log unit,N(C(Cc1ccccc1)C)CCC#N,nr2,25,?C
CN(CCCC1=CC=CC=C1)CCC#N,2-(N-(2-cyanoethyl)-N-methyl)aminopropylbenzene,6.95,Log unit,N(CCCc1ccccc1)(C)CCC#N,nr2,25,?C
CCN(CC)CC(C)(C)COC(=O)C1=CC=CC=C1,"(3-diethylamino-2,2-dimethyl)propoxycarbonylbenzene",9.58,Log unit,N(CC(COC(=O)c1ccccc1)(C)C)(CC)CC,nr2,25,?C
CCN(CC)CCCOC(=O)C=CC1=CC=CC=C1,2-[3-(diethylamino)propoxycarbonyl]vinylbenzene,9.71,Log unit,N(CCCOC(=O)C=Cc1ccccc1)(CC)CC,nr2,25,?C
CC(C)NCC(O)C1=CC=C(O)C(O)=C1,"1,2-dihydroxy-4-(1-hydroxy-2-isopropylamino)ethylbenzene",8.795,Log unit,N(CC(c1ccc(O)c(O)c1)O)C(C)C,nr2,25,?C
CC(C)NC(C(C)C)C(O)C1=CC=C(O)C(O)=C1,"1,2-dihydroxy-4-(1-hydroxy-2-isopropylamino-3-methyl)butylbenzene",8.88,Log unit,N(C(C(c1ccc(O)c(O)c1)O)C(C)C)C(C)C,nr2,25,?C
CNCC(O)C1=CC=C(O)C([O-])=C1,"1,2-dihydroxy-4-(1-hydroxy-2-methylamino)ethylbenzene",10.5,Log unit,N(CC(c1ccc(O)c([O-])c1)O)C,nr2,25,?C
CNCCC1=CC=C(O)C([O-])=C1,"1,2-dihydroxy-4-(2-methylamino)ethylbenzene",10.6,Log unit,N(CCc1ccc(O)c([O-])c1)C,nr2,25,?C
CNC(C)CC1=CC(OC)=C(OC)C=C1,"1,2-dimethoxy-4-(2-methylamino)propylbenzene",9.81,Log unit,N(C(Cc1ccc(OC)c(c1)OC)C)C,nr2,25,?C
CN(C)CC(O)C1=CC=C(O)C=C1,1-(2-dimethylamino-1-hydroxy)ethyl-4-hydroxybenzene,9.8,Log unit,Oc1ccc(C(O)CN(C)C)cc1,oh,25,?C
CC(C(O)C1=CC=CC=C1)N(C)C,(2-dimethylamino-1-hydroxy)propylbenzene,9.2,Log unit,N(C(C(c1ccccc1)O)C)(C)C,nr2,25,?C
CCC(C)(CN(C)C)OC(=O)C1=CC=CC=C1,(1-dimethylaminomethyl-1-methyl)propoxycarbonylbenzene,8.09,Log unit,N(CC(OC(=O)c1ccccc1)(CC)C)(C)C,nr2,25,?C
CCOC1=CC=C(N)C=C1,4-ETHOXY-ANILINE,5.2,Log unit,Nc1ccc(cc1)OCC,nr2,25,?C
CCOC(=O)C1=CC=CC=C1N,2-ethoxycarbonyl-aniline,2.18,Log unit,Nc1ccccc1C(=O)OCC,nr2,25,?C
CCOC(=O)C1=CC=C(N)C=C1,4-ethoxycarbonyl-aniline,2.437,Log unit,Nc1ccc(cc1)C(=O)OCC,nr2,25,?C
CCOC(=O)C1=C(C=CC(N)=C1)N(=O)=O,3-ethoxycarbonyl-4-nitroaniline,-0.11,Log unit,N(=O)(=O)c1ccc(cc1C(=O)OCC)N,nr2,25,?C
CCNC1=CC=CC=C1,n-ethylaniline,5.12,Log unit,N(c1ccccc1)CC,nr2,25,?C
CCC1=CC=CC=C1N,2-ethyl-aniline,4.37,Log unit,Nc1ccccc1CC,nr2,25,?C
CCC1=CC=CC(N)=C1,3-ethyl-aniline,4.7,Log unit,Nc1cccc(c1)CC,nr2,25,?C
CCOC(=O)COC1=CC=C(N)C=C1,4-ethoxycarbonylmethoxyaniline,5.09,Log unit,Nc1ccc(cc1)OCC(=O)OCC,nr2,25,?C
CCOC(=O)C1=CC(N)=CC(=C1)N(=O)=O,3-ethoxycarbonyl-5-nitroaniline,0.98,Log unit,Nc1cc(cc(c1)C(=O)OCC)N(=O)=O,nr2,25,?C
CCC1=CC=C(N)C=C1,4-ethylaniline,5,Log unit,Nc1ccc(cc1)CC,nr2,25,?C
CCN(C)C1=CC=CC=C1,N-ethyl-N-methylaniline,6.02,Log unit,N(c1ccccc1)(C)CC,nr2,25,?C
CCNC1=CC=CC=C1C,N-Ethyl-2-methylaniline,4.96,Log unit,N(c1ccccc1C)CC,nr2,25,?C
CCNC1=CC=C(C)C=C1,N-Ethyl-4-methylaniline,5.645,Log unit,N(c1ccc(cc1)C)CC,nr2,25,?C
CCC(C)(CC)NC1=CC=CC=C1,N-(1-ethyl-1-methyl)propylaniline,6.32,Log unit,N(c1ccccc1)C(C)(CC)CC,nr2,25,?C
CCCN(CC)C1=CC=CC=C1,N-ethyl-N-n-propylaniline,6.395,Log unit,N(c1ccccc1)(CC)CCC,nr2,25,?C
CCSC1=CC=C(N)C=C1,4-ethylthioaniline,4,Log unit,Nc1ccc(SCC)cc1,nr2,25,?C
NC1=CC=CC=C1F,2-fluoro-aniline,3.225,Log unit,Nc1c(F)cccc1,nr2,25,?C
NC1=CC(F)=CC=C1,3-fluoro-aniline,3.58,Log unit,Nc1cc(F)ccc1,nr2,25,?C
NC1=CC=C(F)C=C1,4-fluoro-aniline,4.65,Log unit,Nc1ccc(F)cc1,nr2,25,?C
NC1=CC(=CC=C1F)N(=O)=O,2-Fluoro-5-nitroaniline,1.09,Log unit,N(=O)(=O)c1ccc(F)c(c1)N,nr2,25,?C
NC1=CC=C(F)C=C1N(=O)=O,4-Fluoro-2-nitroaniline,-0.39,Log unit,Nc1ccc(F)cc1N(=O)=O,nr2,25,?C
NC1=CC=C(F)C(=C1)N(=O)=O,4-Fluoro-3-nitroaniline,2.4,Log unit,Nc1ccc(F)c(c1)N(=O)=O,nr2,25,?C
NC1=CC=CC=C1C=O,2-formylaniline,1.36,Log unit,Nc1ccccc1C=O,nr2,25,?C
NC1=CC=C(C=O)C=C1,4-formyl-aniline,1.76,Log unit,Nc1ccc(cc1)C=O,nr2,25,?C
CCCCCCNC1=CC=CC=C1,N-n-hexylaniline,5.42,Log unit,N(c1ccccc1)CCCCCC,nr2,25,?C
CCCC(C)(C)NC1=CC=CC=C1,N-t-hexylaniline,6.3,Log unit,N(c1ccccc1)C(C)(C)CCC,nr2,25,?C
NC1=CC=CC=C1O,2-hydroxy-aniline,4.7605,Log unit,Nc1ccccc1O,nr2,25,?C
NC1=CC=CC(O)=C1,3-hydroxy-aniline,4.27,Log unit,Nc1cccc(c1)O,nr2,25,?C
NC1=CC=C(O)C=C1,4-hydroxy-aniline,5.575,Log unit,Nc1ccc(cc1)O,nr2,25,?C
CC1=C(C)C=C(O)C(N)=C1,"2-hydroxy-4,5-dimethylaniline",5.26,Log unit,Nc1c(O)cc(c(C)c1)C,nr2,25,?C
OCCNC1=CC=CC=C1,N-(2-Hydroxyethyl)aniline,4.14,Log unit,N(c1ccccc1)CCO,nr2,25,?C
CC1=CC=CC=C1NCCO,N-(2-hydroxyethyl)-o-methylaniline,4.18,Log unit,N(c1ccccc1C)CCO,nr2,25,?C
COC1=CC(CN)=CC=C1O,3-hydroxy-2-methoxybenzylamine,8.94,Log unit,NCc1ccc(O)c(c1)OC,nr2,25,?C
COC1=CC(CN)=CC=C1O,3-hydroxy-2-methoxybenzylamine,10.4,Log unit,Oc1ccc(CN)cc1OC,oh,25,?C
COC1=C(O)C(CN)=CC=C1,1-hydroxy-2-methoxybenzylamine,8.7,Log unit,NCc1cccc(OC)c1O,nr2,25,?C
COC1=C(O)C(CN)=CC=C1,1-hydroxy-2-methoxybenzylamine,10.5,Log unit,Oc1c(cccc1CN)OC,oh,25,?C
COC1=C(O)C=CC=C1CN,2-hydroxy-1-methoxybenzylamine,8.89,Log unit,NCc1cccc(O)c1OC,nr2,25,?C
COC1=C(O)C=CC=C1CN,2-hydroxy-1-methoxybenzylamine,10.5,Log unit,Oc1cccc(c1OC)CN,oh,25,?C
CNC1=CC=C(O)C=C1,4-hydroxy-N-methylaniline,5.9,Log unit,N(c1ccc(cc1)O)C,nr2,25,?C
NC1=CC=C(O)C=C1N(=O)=O,4-Hydroxy-2-nitroaniline,9,Log unit,Oc1ccc(N)c(c1)N(=O)=O,oh,25,?C
NC1=CC(O)=CC=C1N(=O)=O,5-hydroxy-2-nitroaniline,-0.55,Log unit,N(=O)(=O)c1ccc(O)cc1N,nr2,25,?C
NC1=CC(=CC=C1O)S([O-])(=O)=O,2-hydroxy-5-sulphoaniline,4.121,Log unit,Nc1cc(S(=O)(=O)[O-])ccc1O,nr2,25,?C
NC1=CC(=CC=C1O)S([O-])(=O)=O,2-hydroxy-5-sulphoaniline,9.146,Log unit,Oc1ccc(S(=O)(=O)[O-])cc1N,oh,25,?C
NC1=CC=CC=C1I,2-iodo-aniline,2.605,Log unit,Nc1c(I)cccc1,nr2,25,?C
NC1=CC(I)=CC=C1,3-iodo-aniline,3.6,Log unit,Nc1cc(I)ccc1,nr2,25,?C
NC1=CC=C(I)C=C1,4-iodo-aniline,3.785,Log unit,Nc1ccc(I)cc1,nr2,25,?C
CSC1=CC=C(N)C(I)=C1,2-iodo-4-methylthioaniline,2.45,Log unit,Nc1c(I)cc(SC)cc1,nr2,25,?C
CSC1=CC=C(N)C=C1I,3-iodo-4-methylthioaniline,3.44,Log unit,Nc1cc(I)c(SC)cc1,nr2,25,?C
NC1=CC(=CC(I)=C1)N(=O)=O,5-iodo-3-nitroaniline,1.44,Log unit,Nc1cc(I)cc(c1)N(=O)=O,nr2,25,?C
CC(C)CN(C)C1=CC=CC=C1,N-isobutyl-N-methylaniline,5.2,Log unit,N(c1ccccc1)(C)CC(C)C,nr2,25,?C
CC(C)NC1=CC=CC=C1,N-ISOPROPYLANILINE,5.5,Log unit,N(c1ccccc1)C(C)C,nr2,25,?C
CC(C)C1=CC=CC=C1N,2-isopropyl-aniline,4.42,Log unit,Nc1ccccc1C(C)C,nr2,25,?C
CC(C)C1=CC=CC(N)=C1,3-isopropyl-aniline,4.67,Log unit,Nc1cccc(c1)C(C)C,nr2,25,?C
CC(C)C1=CC=C(N)C=C1,4-Isopropylaniline,4.85,Log unit,Nc1ccc(cc1)C(C)C,nr2,25,?C
CC(C)S(=O)(=O)C1=CC=C(N)C=C1,4-isopropylsulphonylaniline,1.4,Log unit,Nc1ccc(S(=O)(=O)C(C)C)cc1,nr2,25,?C
CC(C)SC1=CC=C(N)C=C1,4-isopropylthioaniline,3.89,Log unit,Nc1ccc(SC(C)C)cc1,nr2,25,?C
NC1=CC=CC=C1S,2-mercapto-aniline,3,Log unit,Nc1c(S)cccc1,nr2,25,?C
COC1=CC=CC=C1N,2-METHOXY-ANILINE,4.56,Log unit,Nc1ccccc1OC,nr2,25,?C
COC1=CC=CC(N)=C1,3-methoxy-aniline,4.235,Log unit,Nc1cccc(c1)OC,nr2,25,?C
COC1=CC=C(N)C=C1,4-METHOXY-ANILINE,5.335,Log unit,Nc1ccc(cc1)OC,nr2,25,?C
COC(=O)C1=CC=CC=C1N,2-methoxycarbonyl-aniline,2.23,Log unit,Nc1ccccc1C(=O)OC,nr2,25,?C
COC(=O)C1=CC=CC(N)=C1,3-METHOXYCARBONYLANILINE,3.495,Log unit,Nc1cccc(C(=O)OC)c1,nr2,25,?C
COC(=O)C1=CC=C(N)C=C1,4-METHOXYCARBONYLANILINE,2.435,Log unit,Nc1ccc(cc1)C(=O)OC,nr2,25,?C
COC(=O)C1=CC=CC=C1N(C)C,"2-methoxycarbonyl-N,N-dimethylaniline",3.78,Log unit,N(c1ccccc1C(=O)OC)(C)C,nr2,25,?C
COC(=O)C1=CC=CC(=C1)N(C)C,"3-methoxycarbonyl-N,N-dimethylaniline",3.86,Log unit,N(c1cccc(c1)C(=O)OC)(C)C,nr2,25,?C
COC(=O)C1=CC=C(C=C1)N(C)C,"4-methoxycarbonyl-N,N-dimethylaniline",2.52,Log unit,N(c1ccc(cc1)C(=O)OC)(C)C,nr2,25,?C
CNC1=CC=CC=C1C(=O)OC,2-methoxycarbonyl-N-methylaniline,3.53,Log unit,N(c1ccccc1C(=O)OC)C,nr2,25,?C
CNC1=CC=C(C=C1)C(=O)OC,4-methoxycarbonyl-N-methylaniline,2.32,Log unit,N(c1ccc(cc1)C(=O)OC)C,nr2,25,?C
COC1=CC=C(C=C1)N(C)C,"4-Methoxy-N,N-dimethylaniline",5.8735,Log unit,N(c1ccc(cc1)OC)(C)C,nr2,25,?C
COC1=CC(=CC(N)=C1)N(=O)=O,3-methoxy-5-nitroaniline,2.11,Log unit,N(=O)(=O)c1cc(cc(c1)OC)N,nr2,25,?C
COC(=O)C1=C(C)C=C(N)C=C1,4-methoxycarbonyl-3-methylaniline,2.73,Log unit,Nc1ccc(c(C)c1)C(=O)OC,nr2,25,?C
COC(=O)C1=CC(=C(N)C=C1)N(=O)=O,4-methoxycarbonyl-2-nitroaniline,-2.59,Log unit,Nc1ccc(cc1N(=O)=O)C(=O)OC,nr2,25,?C
COC1=C(N)C=C(C=C1)N(=O)=O,2-METHOXY-5-NITROANILINE,2.49,Log unit,N(=O)(=O)c1ccc(OC)c(c1)N,nr2,25,?C
COC1=CC(=C(N)C=C1)N(=O)=O,4-Methoxy-2-nitroaniline,0.75,Log unit,Nc1ccc(cc1N(=O)=O)OC,nr2,25,?C
COC1=C(C=C(N)C=C1)N(=O)=O,4-Methoxy-3-nitroaniline,3.36,Log unit,N(=O)(=O)c1c(ccc(c1)N)OC,nr2,25,?C
COC1=CC(N)=C(C=C1)N(=O)=O,5-methoxy-2-nitroaniline,-0.72,Log unit,Nc1c(ccc(c1)OC)N(=O)=O,nr2,25,?C
CNC1=CC=CC=C1,N-Methylaniline,4.844,Log unit,N(c1ccccc1)C,nr2,25,?C
CC1=CC=CC=C1N,2-methylaniline,4.445,Log unit,Nc1ccccc1C,nr2,25,?C
CC1=CC=CC(N)=C1,3-methyl-aniline,4.695,Log unit,Nc1cccc(c1)C,nr2,25,?C
CC1=CC=C(N)C=C1,4-methyl-aniline,5.09,Log unit,Nc1ccc(cc1)C,nr2,25,?C
CC1=CC(=C(N)C(=C1)N(=O)=O)N(=O)=O,"4-Methyl-2,6-dinitroaniline",-4.505,Log unit,N(=O)(=O)c1cc(cc(c1N)N(=O)=O)C,nr2,25,?C
CC1=C(C=CC(N)=C1)N(=O)=O,3-methyl-4-nitro-aniline,1.57,Log unit,N(=O)(=O)c1ccc(cc1C)N,nr2,25,?C
CC1=C(C=C(N)C=C1)N(=O)=O,4-methyl-3-nitro-aniline,2.995,Log unit,N(=O)(=O)c1c(ccc(c1)N)C,nr2,25,?C
CC1=C(N)C=CC(=C1)N(=O)=O,2-methyl-4-nitroaniline,1.04,Log unit,N(=O)(=O)c1ccc(c(c1)C)N,nr2,25,?C
CC1=C(N)C=C(C=C1)N(=O)=O,2-Methyl-5-nitroaniline,2.32,Log unit,N(=O)(=O)c1ccc(c(c1)N)C,nr2,25,?C
CC1=CC(=CC(N)=C1)N(=O)=O,3-methyl-5-nitroaniline,2.38,Log unit,N(=O)(=O)c1cc(cc(c1)C)N,nr2,25,?C
CC1=CC(=C(N)C=C1)N(=O)=O,4-methyl-2-nitroaniline,0.3965,Log unit,Nc1ccc(cc1N(=O)=O)C,nr2,25,?C
CC1=CC(N)=C(C=C1)N(=O)=O,5-Methyl-2-nitroaniline,-0.09,Log unit,Nc1c(ccc(c1)C)N(=O)=O,nr2,25,?C
CC1=C(N)C(=CC=C1)N(=O)=O,6-Methyl-2-nitroaniline,-0.71,Log unit,Nc1c(cccc1N(=O)=O)C,nr2,25,?C
CCCN(C)C1=CC=CC=C1,N-methyl-N-n-propylaniline,5.67,Log unit,N(c1ccccc1)(C)CCC,nr2,25,?C
CS(=O)(=O)C1=CC=CC=C1N,2-methylsulphonylaniline,0.33,Log unit,Nc1c(S(=O)(=O)C)cccc1,nr2,25,?C
CS(=O)(=O)C1=CC=CC(N)=C1,3-methylsulphonylaniline,2.5705,Log unit,Nc1cc(S(=O)(=O)C)ccc1,nr2,25,?C
CS(=O)(=O)C1=CC=C(N)C=C1,4-methylsuphonylaniline,1.357,Log unit,Nc1ccc(S(=O)(=O)C)cc1,nr2,25,?C
CSC1=CC=CC=C1N,2-methylthioaniline,3.45,Log unit,Nc1c(SC)cccc1,nr2,25,?C
CSC1=CC=CC(N)=C1,3-methylthioaniline,4,Log unit,Nc1cc(SC)ccc1,nr2,25,?C
CSC1=CC=C(N)C=C1,4-METHYLTHIOANILINE,4.35,Log unit,Nc1ccc(SC)cc1,nr2,25,?C
CSC1=CC(=C(N)C(=C1)N(=O)=O)N(=O)=O,"4-methylthio-2,6-dinitroaniline",-4.46,Log unit,Nc1c(cc(SC)cc1N(=O)=O)N(=O)=O,nr2,25,?C
CSC1=CC=C(N)C(=C1)N(=O)=O,4-methylthio-2-nitroaniline,-0.28,Log unit,Nc1ccc(SC)cc1N(=O)=O,nr2,25,?C
CSC1=CC=C(N)C=C1N(=O)=O,4-methylthio-3-nitroaniline,2.47,Log unit,Nc1ccc(SC)c(c1)N(=O)=O,nr2,25,?C
CC1=C(C=C(C(N)=C1N(=O)=O)N(=O)=O)N(=O)=O,"3-methyl-2,4,6-trinitroaniline",-8.08,Log unit,Nc1c(cc(c(c1N(=O)=O)C)N(=O)=O)N(=O)=O,nr2,25,?C
CNC1=CC=C(Cl)C=C1N(=O)=O,4-chloro-N-methyl-2-nitroaniline,-1.205,Log unit,N(c1ccc(Cl)cc1N(=O)=O)C,nr2,25,?C
NC1=CC=C(Cl)C=C1N(=O)=O,4-chloro-2-nitro-aniline,-1.06,Log unit,Nc1ccc(Cl)cc1N(=O)=O,nr2,25,?C
NC1=CC=C(Cl)C(=C1)N(=O)=O,4-chloro-3-nitro-aniline,1.9,Log unit,Nc1ccc(Cl)c(c1)N(=O)=O,nr2,25,?C
NC1=CC(Cl)=CC=C1N(=O)=O,5-chloro-2-nitro-aniline,-1.52,Log unit,N(=O)(=O)c1ccc(Cl)cc1N,nr2,25,?C
NC1=CC=CC=C1C#N,2-cyano-aniline,0.95,Log unit,Nc1ccccc1C#N,nr2,25,?C
NC1=CC(=CC=C1)C#N,3-cyano-aniline,2.754,Log unit,Nc1cccc(c1)C#N,nr2,25,?C
NC1=CC=C(C=C1)C#N,4-cyano-aniline,1.7445,Log unit,Nc1ccc(cc1)C#N,nr2,25,?C
CN(C)C1=CC=CC(=C1)C#N,"3-cyano-n,n-dimethylaniline",2.969,Log unit,N(c1cccc(c1)C#N)(C)C,nr2,25,?C
CN(C)C1=CC=C(C=C1)C#N,"4-Cyano-N,N-dimethylaniline",1.777,Log unit,N(c1ccc(cc1)C#N)(C)C,nr2,25,?C
NC1=CC(=CC(=C1)N(=O)=O)C#N,5-cyano-3-nitroaniline,0.46,Log unit,N(=O)(=O)c1cc(cc(c1)C#N)N,nr2,25,?C
C1CCC(CC1)NC1=CC=CC=C1,N-Cyclohexylaniline,5.6,Log unit,N(c1ccccc1)C1CCCCC1,nr2,25,?C
CN(C1CCCCC1)C1=CC=CC=C1,N-cyclohexyl-N-methylaniline,6.35,Log unit,N(c1ccccc1)(C)C1CCCCC1,nr2,25,?C
CC1=CC=CC=C1NC1CCCCC1,N-cyclohexyl-2-methylaniline,5.34,Log unit,N(c1ccccc1C)C1CCCCC1,nr2,25,?C
C1CCC(C1)NC1=CC=CC=C1,N-cyclopentylaniline,5.3,Log unit,N(c1ccccc1)C1CCCC1,nr2,25,?C
CN(C1CCCC1)C1=CC=CC=C1,N-cyclopentyl-N-methylaniline,6.71,Log unit,N(c1ccccc1)(C)C1CCCC1,nr2,25,?C
CC1=CC=CC=C1NC1CCCC1,N-cyclopentyl-2-methylaniline,5.07,Log unit,N(c1ccccc1C)C1CCCC1,nr2,25,?C
NC1=C(O)C([NH3+])=C(O)C([NH3+])=C1,"3,5-diamino-2,4-dihydroxy-aniline",1.2,Log unit,Nc1c(O)c(c(c(c1)[NH2+])O)[NH2+],nr2,25,?C
NC1=CC(N)=C(O)C(N)=C1,"3,5-diamino-2-hydroxy-aniline",10.5,Log unit,Oc1c(cc(cc1N)N)N,oh,25,?C
NC1=CC([NH3+])=CC(N)=C1O,"3,5-diamino-2-hydroxy-aniline",2.8,Log unit,Nc1c(O)c(N)cc([NH2+])c1,nr2,25,?C
NC1=C(O)C([NH3+])=CC([NH3+])=C1,"3,5-diamino-2-hydroxy-aniline",1.3,Log unit,Nc1c(O)c([NH2+])cc([NH2+])c1,nr2,25,?C
NC1=C(Br)C=C(Br)C=C1,"2,4-dibromo-aniline",2.3,Log unit,Nc1c(cc(Br)cc1)Br,nr2,25,?C
NC1=CC(Br)=CC=C1Br,"2,5-Dibromoaniline",1.44,Log unit,Nc1cc(Br)ccc1Br,nr2,25,?C
NC1=C(Br)C=CC=C1Br,"2,6-dibromo-aniline",0.365,Log unit,Nc1c(Br)cccc1Br,nr2,25,?C
NC1=CC(Br)=CC(Br)=C1,"3,5-dibromo-aniline",2.36,Log unit,Nc1cc(Br)cc(Br)c1,nr2,25,?C
NC1=CC(Br)=C(O)C(Br)=C1,"3,5-dibromo-4-hydroxy-aniline",3.2,Log unit,Nc1cc(Br)c(O)c(c1)Br,nr2,25,?C
COC1=C(Br)C=C(N)C=C1Br,"3,5-dibromo-4-methoxy-aniline",2.98,Log unit,Nc1cc(Br)c(c(c1)Br)OC,nr2,25,?C
CC1=CC(Br)=C(N)C(Br)=C1,"2,6-dibromo-4-methyl-aniline",0.69,Log unit,Nc1c(Br)cc(cc1Br)C,nr2,25,?C
CC1=C(Br)C=C(N)C=C1Br,"3,5-dibromo-4-methyl-aniline",2.87,Log unit,Nc1cc(Br)c(c(c1)Br)C,nr2,25,?C
NC1=C(Br)C=C(Br)C=C1N(=O)=O,"2,4-Dibromo-6-nitroaniline",-2.98,Log unit,Nc1c(cc(Br)cc1N(=O)=O)Br,nr2,25,?C
CCCCOC1=CC(N)=C(OCCCC)C=C1,"2,5-di-n-butoxyaniline",3.96,Log unit,Nc1c(ccc(c1)OCCCC)OCCCC,nr2,25,?C
CCCCN(CCCC)C1=CC=CC=C1,"N,N-di-n-Butylaniline",6.3,Log unit,N(c1ccccc1)(CCCC)CCCC,nr2,25,?C
CC(C)(C)C1=CC(=CC(N)=C1)C(C)(C)C,"3,5-di-t-butyl-aniline",4.97,Log unit,Nc1cc(cc(c1)C(C)(C)C)C(C)(C)C,nr2,25,?C
CC(C)C1=C(C(=CC(N)=C1)C(C)(C)C)N(=O)=O,"3,5-di-t-butyl-4-nitro-aniline",2.93,Log unit,Nc1cc(c(c(c1)C(C)(C)C)N(=O)=O)C(C)C,nr2,25,?C
NC1=CC=C(Cl)C=C1Cl,"2,4-dichloro-aniline",2.025,Log unit,Nc1ccc(Cl)cc1Cl,nr2,25,?C
NC1=CC(Cl)=CC=C1Cl,"2,5-dichloro-aniline",1.57,Log unit,Nc1cc(Cl)ccc1Cl,nr2,25,?C
NC1=CC=C(Cl)C(Cl)=C1,"3,4-dichloro-aniline",2.985,Log unit,Nc1ccc(Cl)c(Cl)c1,nr2,25,?C
NC1=CC(Cl)=CC(Cl)=C1,"3,5-dichloro-aniline",2.375,Log unit,Nc1cc(Cl)cc(Cl)c1,nr2,25,?C
NC1=C(Cl)C(Cl)=CC=C1,"2,3-DICHLOROANILINE",1.7355,Log unit,Nc1c(c(Cl)ccc1)Cl,nr2,25,?C
NC1=C(Cl)C=CC=C1Cl,"2,6-DICHLOROANILINE",0.422,Log unit,Nc1c(Cl)cccc1Cl,nr2,25,?C
NC1=CC(Cl)=CC(Cl)=C1,"3,5-Dichloroaniline",2.371,Log unit,Nc1cc(Cl)cc(Cl)c1,nr2,25,?C
CSC1=CC(Cl)=C(N)C=C1Cl,"2,5-dichloro-4-methylthioaniline",1.7,Log unit,Nc1cc(Cl)c(SC)cc1Cl,nr2,25,?C
CSC1=CC=C(Cl)C(N)=C1Cl,"2,6-dichloro-4-methylthioaniline",0.35,Log unit,Nc1c(Cl)ccc(SC)c1Cl,nr2,25,?C
CSC1=C(Cl)C=C(N)C=C1Cl,"3,5-dichloro-4-methylthioaniline",1.67,Log unit,Nc1cc(Cl)c(SC)c(c1)Cl,nr2,25,?C
NC1=C(Cl)C=C(Cl)C=C1N(=O)=O,"2,4-dichloro-6-nitro-aniline",-3.32,Log unit,Nc1c(cc(Cl)cc1N(=O)=O)Cl,nr2,25,?C
NC1=CC(Cl)=C(C=C1Cl)N(=O)=O,"2,5-dichloro-4-nitro",-1.74,Log unit,N(=O)(=O)c1cc(Cl)c(cc1Cl)N,nr2,25,?C
NC1=C(Cl)C=C(C=C1Cl)N(=O)=O,"2,6-dichloro-4-nitro-aniline",-2.55,Log unit,N(=O)(=O)c1cc(Cl)c(c(c1)Cl)N,nr2,25,?C
CCOC1=CC(N)=C(OCC)C=C1,"2,5-Diethoxyaniline",3.94,Log unit,Nc1c(ccc(c1)OCC)OCC,nr2,25,?C
CCN(CC)C1=CC=CC=C1,"n,n-diethylaniline",6.57,Log unit,N(c1ccccc1)(CC)CC,nr2,25,?C
CCN(CC)C1=CC=C(N)C=C1,4-diethylaminoaniline,7.96,Log unit,N(c1ccc(cc1)N)(CC)CC,nr2,25,?C
CCN(CC)CCOC(=O)C1=CC=C(N)C=C1,4-(2-diethylamino)ethoxycarbonylaniline,8.945,Log unit,N(CCOC(=O)c1ccc(cc1)N)(CC)CC,nr2,25,?C
CCN(CC)C(COC(=O)C1=CC=C(N)C=C1)CC(C)C,4-[(2-diethylamino-4-methyl)pentyloxycarbonyl)]aniline,9.4,Log unit,N(C(COC(=O)c1ccc(cc1)N)CC(C)C)(CC)CC,nr2,25,?C
CCN(CC)C1=C(C=C(C=C1)N(=O)=O)N(=O)=O,"N,N-diethyl-2,4-dinitroaniline",0.195,Log unit,N(=O)(=O)c1c(ccc(c1)N(=O)=O)N(CC)CC,nr2,25,?C
CCN(CC)C1=CC=CC=C1C,"N,N-diethyl-2-methylaniline",7.2395,Log unit,N(c1ccccc1C)(CC)CC,nr2,25,?C
CCN(CC)C1=CC=CC(C)=C1,"N,N-Diethyl-3-methylaniline",6.7,Log unit,N(c1cccc(c1)C)(CC)CC,nr2,25,?C
CCN(CC)C1=CC=C(C=C1)N=O,"N,N-Diethyl-4-nitrosoaniline",4.11,Log unit,N(c1ccc(cc1)N=O)(CC)CC,nr2,25,?C
NC1=CC(I)=CC(I)=C1,"3,5-di-iodoaniline",2.368,Log unit,Nc1cc(I)cc(I)c1,nr2,25,?C
CSC1=C(I)C=C(N)C=C1I,"2,5-diiodo-4-methylthioaniline",1.15,Log unit,Nc1cc(I)c(SC)c(c1)I,nr2,25,?C
COC1=CC(N)=C(OC)C=C1,"2,5-DIMETHOXYANILINE",3.93,Log unit,Nc1c(ccc(c1)OC)OC,nr2,25,?C
CC(C)NCC(O)C1=CC=CC(N)=C1,1-amino-3-(1-hydroxy-2-isopropylamino)ethylbenzene,9.6,Log unit,N(CC(c1cccc(c1)N)O)C(C)C,nr2,25,?C
NC1=C(O)C=C(O)C=C1,"2,4-dihydroxy-aniline",5.7,Log unit,Nc1ccc(cc1O)O,nr2,25,?C
NC1=C(O)C=C(O)C=C1,"2,4-dihydroxy-aniline",9.3,Log unit,Oc1c(ccc(c1)O)N,oh,25,?C
NC1=C([O-])C=C(O)C=C1,"2,4-dihydroxy-aniline",11.3,Log unit,Oc1ccc(N)c([O-])c1,oh,25,?C