Smiles,Name,pKa,pKa Unit,Ionizable center smiles,IC group,Temperature,Temperature Unit
NCCN(CCN)CCN,"1-amino-2-(2,2'-bisaminoethyl)aminoethane",9.6,Log unit,NCCN(CCN)CCN,4,25,?C
NCCN(CCN)CC[NH2+],"1-amino-2-(2,2'-bisaminoethyl)aminoethane",9.44,Log unit,NCCN(CC[NH2+])CCN,4,25,?C
NCCN(CC[NH2+])CC[NH2+],"1-amino-2-(2,2'-bisaminoethyl)aminoethane",7.9,Log unit,NCCN(CC[NH2+])CC[NH2+],3,25,?C
CCCCNCCN,1-amino-2-butylaminoethane,10.3,Log unit,N(CCN)CCCC,4,25,?C
CC(N)C(N)=O,1-amino-1-carbamoyl-ethane,8.02,Log unit,NC(C(=O)N)C,4,25,?C
CCN(CC)CCN,1-AMINO-2-DIETHYLAMINOETHANE,9.975,Log unit,N(CCN)(CC)CC,3,25,?C
CC[N+](CC)CCN,1-AMINO-2-DIETHYLAMINOETHANE,7.4,Log unit,NCC[N+](CC)CC,nr2,25,?C
CN(C)CCN,1-amino-2-dimethylaminoethane,9.53,Log unit,NCCN(C)C,3,25,?C
C[N+](C)CCN,1-amino-2-dimethylaminoethane,6.6,Log unit,NCC[N+](C)C,nr2,25,?C
CN(C)NC(N)C(F)(F)F,1-amino-1-dimethylhydrazono-2-trifluoroethane,3.97,Log unit,NC(C(F)(F)F)NN(C)C,3,25,?C
NCCOCCSCCN,1-(2-amino)ethoxy-2-(2-amino)ethylthioethane,9.16,Log unit,NCCOCCSCCN,4,25,?C
NCCOCCSCC[NH2+],1-(2-amino)ethoxy-2-(2-amino)ethylthioethane,8.8,Log unit,NCCOCCSCC[NH2+],nr2,25,?C
CCNCCN,1-amino-2-ethylaminoethane,10.26,Log unit,N(CCN)CC,nr2,25,?C
NCCNCCNCCNCCN,1-(2-aminoethyl)amino-2-[2-(2-aminoethyl)-aminoethyl]aminoethane,9.62,Log unit,NCCNCCNCCNCCN,6,25,?C
NCCNCCNCCNCC[NH2+],1-(2-aminoethyl)amino-2-[2-(2-aminoethyl)-aminoethyl]aminoethane,9.38,Log unit,NCCNCCNCCNCC[NH2+],8,25,?C
[NH2+]CCNCCNCCNCC[NH2+],1-(2-aminoethyl)amino-2-[2-(2-aminoethyl)-aminoethyl]aminoethane,7.87,Log unit,N(CCNCCNCC[NH2+])CC[NH2+],5,25,?C
[NH2+]CCNCC[NH2+]CCNCC[NH2+],1-(2-aminoethyl)amino-2-[2-(2-aminoethyl)-aminoethyl]aminoethane,4.55,Log unit,N(CC[NH2+]CCNCC[NH2+])CC[NH2+],nr2,25,?C
[NH2+]CCNCC[NH2+]CC[NH2+]CC[NH2+],1-(2-aminoethyl)amino-2-[2-(2-aminoethyl)-aminoethyl]aminoethane,2.95,Log unit,N(CC[NH2+])CC[NH2+]CC[NH2+]CC[NH2+],nr2,25,?C
NCCNCCO,1-amino-2-(2-hydroxyethyl)aminoethane,9.8,Log unit,N(CCO)CCN,4,25,?C
CC(O)CNCCN,1-amino-2-(2-hydroxypropyl)amionethane,9.56,Log unit,N(CC(O)C)CCN,5,25,?C
NCCNCCCO,1-amino-2-(3-hydroxypropyl)aminoethane,9.67,Log unit,N(CCCO)CCN,4,25,?C
CC(C)NCCN,1-amino-2-isopropylaminoethane,10.62,Log unit,N(CCN)C(C)C,4,25,?C
[NH2+]CCS,1-amino-2-mercaptoethane,8.35,Log unit,SCC[NH2+],sh,25,?C
CNCCN,1-amino-2-methylaminoethane,10.15,Log unit,N(CCN)C,3,25,?C
CNCC[NH2+],1-amino-2-methylaminoethane,6.86,Log unit,N(CC[NH2+])C,nr2,25,?C
CC1=CC=C(CNCCN)C=C1,1-amino-2-(p-methyl)benzylaminoethane,9.41,Log unit,NCCNCc1ccc(cc1)C,4,25,?C
CC1=CC=C(CNCC[NH2+])C=C1,1-amino-2-(p-methyl)benzylaminoethane,6.51,Log unit,N(Cc1ccc(cc1)C)CC[NH2+],nr2,25,?C
CCCNCCN,1-amino-2-propylaminoethane,10.34,Log unit,N(CCN)CCC,4,25,?C
NCCOCCOCC[NH2+],"1,2-bis(2-amino)ethoxyethane",9.17,Log unit,NCCOCCOCC[NH2+],nr2,25,?C
NCCNCCNCCN,"1,2-bis(2-aminoethyl)aminoethane",9.6,Log unit,NCCNCCNCCN,5,25,?C
NCCNCCNCC[NH2+],"1,2-bis(2-aminoethyl)aminoethane",9.5,Log unit,NCCNCCNCC[NH2+],6,25,?C
[NH2+]CCNCCNCC[NH2+],"1,2-bis(2-aminoethyl)aminoethane",6.3,Log unit,N(CCNCC[NH2+])CC[NH2+],nr2,25,?C
[NH2+]CCNCC[NH2+]CC[NH2+],"1,2-bis(2-aminoethyl)aminoethane",3.6,Log unit,N(CC[NH2+]CC[NH2+])CC[NH2+],nr2,25,?C
NCCSCCSCC[NH2+],"1,2-bis(2-aminoethyl)thioethane",8.9,Log unit,NCCSCCSCC[NH2+],nr2,25,?C
CCN(CC)CC[N+](CC)CC,"1,2-bisdiethylaminoethane",6.9,Log unit,N(CC)(CC)CC[N+](CC)CC,nr2,25,?C
CC(O)CN(CC[N+](CC(C)O)CC(C)O)CC(C)O,"1,2-bis(di-2-hydroxypropylamino)ethane",4.6,Log unit,N(CC[N+](CC(O)C)CC(O)C)(CC(O)C)CC(O)C,nr2,25,?C
CN(C)CC[N+](C)C,"1,2-bisdimethylaminoethane",6,Log unit,N(CC[N+](C)C)(C)C,nr2,25,?C
CN(C)CCN(C)CCN(C)CCN(C)C,"1,2-bis(2-dimethylamino)ethylmethylaminoethane",8.9,Log unit,N(CCN(C)C)(C)CCN(C)CCN(C)C,1,25,?C
CN(C)CCN(C)CCN(C)CC[N+](C)C,"1,2-bis(2-dimethylamino)ethylmethylaminoethane",8.5,Log unit,N(CCN(CCN(CC[N+](C)C)C)C)(C)C,3,25,?C
CN(CCN(C)CC[N+](C)C)CC[N+](C)C,"1,2-bis(2-dimethylamino)ethylmethylaminoethane",5.1,Log unit,N(CCN(CC[N+](C)C)C)(C)CC[N+](C)C,nr2,25,?C
NCC(=O)NCCNC(=O)CN,"1,2-bisglycylamidoethane",8.05,Log unit,NCC(=O)NCCNC(=O)CN,5,25,?C
NCC[NH2+],"1,2-diamino-ethane",7.1,Log unit,NCC[NH2+],nr2,25,?C
CCN(CC)CCOCC[N+](CC)CC,1-diethylamino-2-diethylaminoethoxyethane,8.6,Log unit,N(CCOCC[N+](CC)CC)(CC)CC,nr2,25,?C
CCN(CC)CCOCC[N+](C)C,1-diethylamino-2-dimethylaminoethoxyethane,8.38,Log unit,N(CCOCC[N+](C)C)(CC)CC,nr2,25,?C
CCN(C)CCOCCN(CC)CC,1-diethylamino-2-ethylmethylaminoethoxyethane,9.8,Log unit,N(CCOCCN(CC)C)(CC)CC,2,25,?C
CCN(C)CCOCC[N+](CC)CC,1-diethylamino-2-ethylmethylaminoethoxyethane,8.76,Log unit,N(CCOCC[N+](CC)CC)(CC)C,nr2,25,?C
CN(C)CCOCC[N+](C)C,1-dimethylamino-2-dimethylaminoethoxyethane,8.49,Log unit,N(CCOCC[N+](C)C)(C)C,nr2,25,?C
CN(C)CCN(C)CCN(C)C,1-dimethylamino-2-(2-dimethylamino)ethylmethylaminoethane,9,Log unit,N(CCN(CCN(C)C)C)(C)C,nr2,25,?C
CCN(C)CCOCCN(C)C,1-dimethylamino-2-ethylmethylaminoethoxyethane,9.32,Log unit,N(CCOCCN(C)C)(C)CC,1,25,?C
CCN(C)CCOCC[N+](C)C,1-dimethylamino-2-ethylmethylaminoethoxyethane,8.24,Log unit,N(CCOCC[N+](C)C)(C)CC,1,25,?C
[NH2+]CCOP(O)([O-])=O,2-Aminoethyl dihydrogen phosphate,5.8,Log unit,OP(=O)([O-])OCC[NH2+],po2h,25,?C
CN(C)CCSCC[N+](C)C,bisdimethylaminoethyl sulphide,8.3,Log unit,N(CCSCC[N+](C)C)(C)C,nr2,25,?C
NCCSSCC[NH2+],"2,2'-diaminodiethyl disulphide",9.1,Log unit,NCCSSCC[NH2+],nr2,25,?C
NCCSCC[NH2+],"2,2'-diaminodiethyl sulphide",9.14,Log unit,NCCSCC[NH2+],nr2,25,?C
NCCCNCCCN,1-amino-3-(3-aminopropyl)aminopropane,10.1,Log unit,NCCCNCCCN,4,25,?C
NCCCNCCC[NH2+],1-amino-3-(3-aminopropyl)aminopropane,9.7,Log unit,N(CCC[NH2+])CCCN,4,25,?C
[NH2+]CCCNCCC[NH2+],1-amino-3-(3-aminopropyl)aminopropane,7.9,Log unit,N(CCC[NH2+])CCC[NH2+],nr2,25,?C
CN(CCCN)CCCN,1-amino-3-(3-aminoproplylmethyl)aminopropane,9.8,Log unit,NCCCN(CCCN)C,nr2,25,?C
CN(CCCN)CCC[NH2+],1-amino-3-(3-aminoproplylmethyl)aminopropane,9.4,Log unit,N(CCC[NH2+])(C)CCCN,3,25,?C
CN(CCC[NH2+])CCC[NH2+],1-amino-3-(3-aminoproplylmethyl)aminopropane,6.5,Log unit,N(CCC[NH2+])(C)CCC[NH2+],nr2,25,?C
CCN(CC)CCC[N+](CC)CC,"1,3-bisdiethylaminopropane",8.5,Log unit,N(CCC[N+](CC)CC)(CC)CC,nr2,25,?C
CCN(CC)CC(O)C[N+](CC)CC,"1,3-bisdiethylamino-2-hydroxypropane",7.44,Log unit,N(CC(O)C[N+](CC)CC)(CC)CC,nr2,25,?C
CC(CN(C)C)N(C)C,"1,2-bisdimethylaminopropane",9.19,Log unit,N(C(CN(C)C)C)(C)C,nr2,25,?C
CN(C)CCC[N+](C)C,"1,3-bisdimethylaminopropane",8,Log unit,N(CCC[N+](C)C)(C)C,nr2,25,?C
CC(O)CN(CCCN(C)C)CC(C)O,1-(bis-2-hydroxypropyl)amino-3-dimethylaminopropane,8.9,Log unit,N(CC(O)C)(CC(O)C)CCCN(C)C,3,25,?C
CC(O)CN(CCC[N+](C)C)CC(C)O,1-(bis-2-hydroxypropyl)amino-3-dimethylaminopropane,6.8,Log unit,N(CC(O)C)(CC(O)C)CCC[N+](C)C,nr2,25,?C
CC(N)CN,"1,2-diamino-propane",9.985001,Log unit,NC(CN)C,nr2,25,?C
OC(=O)C1=C(C=C(C=C1)C([O-])=O)C([O-])=O,"Benzene-1,2,4-tricarboxylic acid",4.9,Log unit,[O-]C(=O)c1ccc(c(C(=O)[O-])c1)C(=O)O,co2h,25,?C
OC(=O)C1=CC=CC(C([O-])=O)=C1C([O-])=O,"1,2,3-Benzenetricarboxylic acid",4.85,Log unit,[O-]C(=O)c1cccc(c1C(=O)[O-])C(=O)O,co2h,25,?C
OC(=O)C1=C(C(O)=O)C(C(O)=O)=C(C=C1)C(O)=O,"Benzene-1,2,3,4-tetracarboxylic acid",2.35,Log unit,OC(=O)c1ccc(c(C(=O)O)c1C(=O)O)C(=O)O,1,25,?C
OC(=O)C1=C(C(O)=O)C(C([O-])=O)=C(C=C1)C(O)=O,"Benzene-1,2,3,4-tetracarboxylic acid",2.9,Log unit,OC(=O)c1ccc(c(C(=O)[O-])c1C(=O)O)C(=O)O,3,25,?C
OC(=O)C1=C(C=CC(C([O-])=O)=C1C([O-])=O)C([O-])=O,"Benzene-1,2,3,4-tetracarboxylic acid",5.8,Log unit,[O-]C(=O)c1ccc(c(c1C(=O)[O-])C(=O)O)C(=O)[O-],co2h,25,?C
OC(=O)C1=CC(C(O)=O)=C(C=C1C([O-])=O)C(O)=O,"1,2,4,5-Benzenetetracarboxylic acid",3,Log unit,OC(=O)c1c(cc(c(c1)C(=O)[O-])C(=O)O)C(=O)O,3,25,?C
OC(=O)C1=CC(C([O-])=O)=C(C=C1C([O-])=O)C(O)=O,"1,2,4,5-Benzenetetracarboxylic acid",4.6,Log unit,[O-]C(=O)c1cc(c(cc1C(=O)O)C(=O)[O-])C(=O)O,co2h,25,?C
OC(=O)C1=C(C=C(C([O-])=O)C(=C1)C([O-])=O)C([O-])=O,"1,2,4,5-Benzenetetracarboxylic acid",5.3,Log unit,[O-]C(=O)c1c(cc(c(c1)C(=O)O)C(=O)[O-])C(=O)[O-],co2h,25,?C
OC(=O)C1=CC(C(O)=O)=C(C(O)=O)C(C(O)=O)=C1C(O)=O,benzene-pentacarboxylic acid,2.3,Log unit,OC(=O)c1c(cc(c(c1C(=O)O)C(=O)O)C(=O)O)C(=O)O,1,25,?C
OC(=O)C1=C(C(O)=O)C(C([O-])=O)=C(C(O)=O)C(=C1)C([O-])=O,benzene-pentacarboxylic acid,3.5,Log unit,OC(=O)c1cc(c(c(C(=O)[O-])c1C(=O)O)C(=O)O)C(=O)[O-],3,25,?C
OC(=O)C1=C(C([O-])=O)C(C(O)=O)=C(C=C1C([O-])=O)C([O-])=O,benzene-pentacarboxylic acid,5.5,Log unit,[O-]C(=O)c1c(c(cc(c1C(=O)O)C(=O)[O-])C(=O)[O-])C(=O)O,co2h,25,?C
OC(=O)C1=C(C=C(C([O-])=O)C(C([O-])=O)=C1C([O-])=O)C([O-])=O,benzene-pentacarboxylic acid,6,Log unit,[O-]C(=O)c1c(c(cc(c1C(=O)O)C(=O)[O-])C(=O)[O-])C(=O)[O-],co2h,25,?C
OC(=O)C1=C(C([O-])=O)C(C([O-])=O)=C(C([O-])=O)C(C([O-])=O)=C1C([O-])=O,373 440 benzenehexacarboxylic acid,6.17,Log unit,[O-]C(=O)c1c(C(=O)[O-])c(C(=O)[O-])c(C(=O)[O-])c(C(=O)[O-])c1C(=O)O,co2h,25,?C
OC(=O)C1=C(C(O)=O)C(C(O)=O)=C(C(O)=O)C(C(O)=O)=C1C(O)=O,371 440 benzenehexacarboxylic acid,2.18,Log unit,OC(=O)c1c(c(c(c(C(=O)O)c1C(=O)O)C(=O)O)C(=O)O)C(=O)O,co2h,25,?C
OC(=O)C1=C(C(O)=O)C(C(O)=O)=C(C([O-])=O)C(C(O)=O)=C1C(O)=O,371 440 benzenehexacarboxylic acid,2.6,Log unit,OC(=O)c1c(c(c(c(C(=O)[O-])c1C(=O)O)C(=O)O)C(=O)O)C(=O)O,3,25,?C
OC(=O)C1=C(C(O)=O)C(C([O-])=O)=C(C(O)=O)C(C([O-])=O)=C1C(O)=O,371 440 benzenehexacarboxylic acid,3.2,Log unit,OC(=O)c1c(c(c(c(C(=O)[O-])c1C(=O)O)C(=O)O)C(=O)[O-])C(=O)O,3,25,?C
OC(=O)C1=C(C([O-])=O)C(C(O)=O)=C(C([O-])=O)C(C(O)=O)=C1C([O-])=O,372 440 benzenehexacarboxylic acid,4.66,Log unit,OC(=O)c1c(c(c(C(=O)[O-])c(c1C(=O)[O-])C(=O)O)C(=O)O)C(=O)[O-],co2h,25,?C
OC(=O)C1=C(C([O-])=O)C(C([O-])=O)=C(C([O-])=O)C(C(O)=O)=C1C([O-])=O,372 440 benzenehexacarboxylic acid,5.4,Log unit,[O-]C(=O)c1c(c(c(c(c1C(=O)[O-])C(=O)O)C(=O)[O-])C(=O)O)C(=O)[O-],co2h,25,?C
OC1=CC=C(C=C1O)C([O-])=O,"3,4-dihydroxy-benzoic acid",9,Log unit,Oc1c(O)ccc(C(=O)[O-])c1,2,25,?C
OC1=CC(=CC=C1[O-])C([O-])=O,"3,4-dihydroxy-benzoic acid",12.6,Log unit,[O-]c1ccc(C(=O)[O-])cc1O,oh,25,?C
OC1=CC(=CC(O)=C1O)C([O-])=O,gallic acid,8.68,Log unit,Oc1c(O)cc(cc1O)C(=O)[O-],2,25,?C
OC1=CC(=CC(O)=C1[O-])C([O-])=O,gallic acid,12.7,Log unit,Oc1c(c(O)cc(c1)C(=O)[O-])[O-],oh,25,?C
OC(=O)CCCC(C(O)=O)(C1=CC=CC=C1)C1=CC=CC=C1,"alpha,alpha-diphenyladipic acid",4.47,Log unit,OC(=O)CCCC(c1ccccc1)(c1ccccc1)C(=O)O,co2h,25,?C
OC(=O)CC(C(CC(O)=O)C1=CC=CC=C1)C1=CC=CC=C1,"beta,beta'-diphenyladipic acid",4.545,Log unit,OC(=O)CC(c1ccccc1)C(c1ccccc1)CC(=O)O,co2h,25,?C
OC(=O)CCCCC(C(O)=O)(C1=CC=CC=C1)C1=CC=CC=C1,"alpha,alpha-diphenylpimelic acid",4.58,Log unit,OC(=O)CCCCC(c1ccccc1)(c1ccccc1)C(=O)O,co2h,25,?C
[NH2+]C(CC1=CC=CC=C1)C(O)=O,Phenylalanine,2.16,Log unit,OC(=O)C(Cc1ccccc1)[NH2+],co2h,25,?C
[NH2+]C(CC1=CC=CC=C1F)C(O)=O,o-Fluorophenylalanine,2.12,Log unit,OC(=O)C(Cc1c(F)cccc1)[NH2+],co2h,25,?C
[NH2+]C(CC1=CC(F)=CC=C1)C(O)=O,m-Fluorophenylalanine,2.1,Log unit,OC(=O)C(Cc1cc(F)ccc1)[NH2+],co2h,25,?C
[NH2+]C(CC1=CC=C(F)C=C1)C(O)=O,p=fluorophenylalanine,2.13,Log unit,OC(=O)C(Cc1ccc(F)cc1)[NH2+],co2h,25,?C
[NH2+]C(CC1=CC=CC=C1Cl)C(O)=O,O-Chlorophenylalanine,2.23,Log unit,OC(=O)C(Cc1c(Cl)cccc1)[NH2+],co2h,25,?C
[NH2+]C(CC1=CC(Cl)=CC=C1)C(O)=O,m-chlorophenylalanine,2.17,Log unit,OC(=O)C(Cc1cc(Cl)ccc1)[NH2+],co2h,25,?C
[NH2+]C(CC1=CC=C(Cl)C=C1)C(O)=O,P-CHLOROPHENYLALANINE,2.08,Log unit,OC(=O)C(Cc1ccc(Cl)cc1)[NH2+],co2h,25,?C
[NH2+]C(CC1=CC=C(O)C=C1)C([O-])=O,tyrosin,10.1,Log unit,Oc1ccc(CC([NH2+])C(=O)[O-])cc1,oh,25,?C
NC(CC1=CC=C([O-])C=C1)C([O-])=O,tyrosin,10.1,Log unit,[O-]c1ccc(CC(N)C(=O)[O-])cc1,nr2,25,?C
[NH2+]C(CC1=CC=C(O)C(O)=C1)C(O)=O,"3,4-Dihydroxyphenylalanine",2.32,Log unit,OC(=O)C(Cc1ccc(O)c(O)c1)[NH2+],co2h,25,?C
[NH2+]C(CC1=CC=C(O)C(O)=C1)C([O-])=O,"3,4-Dihydroxyphenylalanine",8.7,Log unit,Oc1c(O)ccc(CC([NH2+])C(=O)[O-])c1,oh,25,?C
NC(CC1=CC=C([O-])C(O)=C1)C([O-])=O,"3,4-Dihydroxyphenylalanine",9.9,Log unit,Oc1c([O-])ccc(CC(N)C(=O)[O-])c1,nr2,25,?C
[NH2+]C(CC1=CC(I)=C(O)C(I)=C1)C(O)=O,Diiodotyrosine,2.115,Log unit,OC(=O)C(Cc1cc(I)c(O)c(c1)I)[NH2+],co2h,25,?C
[NH2+]C(CC1=CC(I)=C(O)C(I)=C1)C([O-])=O,Diiodotyrosine,6.5,Log unit,Oc1c(I)cc(cc1I)CC([NH2+])C(=O)[O-],oh,25,?C
OC(=O)C1=C(C([O-])=O)C(Cl)=C(Cl)C(Cl)=C1Cl,"Tetrachloro-1,2-benzenedicarboxylic acid",2.64,Log unit,[O-]C(=O)c1c(C(=O)O)c(Cl)c(Cl)c(Cl)c1Cl,co2h,25,?C
OC(=O)C1=C(C(O)=O)C(Cl)=CC=C1,"3-chloro-1,2-benzenedicarboxylic acid",2,Log unit,OC(=O)c1c(Cl)cccc1C(=O)O,2,25,?C
OC(=O)C1=C(C(O)=O)C(Br)=CC=C1,"3-bromo-1,2-benzenedicarboxylic acid",2.27,Log unit,OC(=O)c1c(Br)cccc1C(=O)O,2,25,?C
OC(=O)C1=CC=C(Br)C=C1C(O)=O,"4-bromo-1,2-benzenedicarboxylic acid",2.8,Log unit,OC(=O)c1cc(Br)ccc1C(=O)O,2,25,?C
OC(=O)C1=CC(C(O)=O)=C(C=C1O)C(O)=O,"5-hydroxy-1,2,4-benzenetricarboxylic acid",1.86,Log unit,OC(=O)c1c(O)cc(c(C(=O)O)c1)C(=O)O,3,25,?C
OC(=O)C1=C(C=C(C([O-])=O)C(O)=C1)C(O)=O,"5-hydroxy-1,2,4-benzenetricarboxylic acid",3.4,Log unit,OC(=O)c1cc(O)c(cc1C(=O)O)C(=O)[O-],co2h,25,?C
OC(=O)C1=CC(C(O)=O)=C(O)C(=C1)C(O)=O,"2-hydroxy-1,3,5-benzenetricarboxylic acid",3.07,Log unit,OC(=O)c1c(O)c(cc(C(=O)O)c1)C(=O)O,2,25,?C
COC1=CC(C(O)=O)=C(C=C1)C([O-])=O,"4-methoxy-1,2-benzenedicarboxylic acid",4.9,Log unit,[O-]C(=O)c1ccc(cc1C(=O)O)OC,co2h,25,?C
CC1=C(O)C=CC(O)=C1,Toluhydroquinone,10.1,Log unit,Oc1ccc(O)c(C)c1,2,25,?C
OC1=CC=CC(O)=C1O,pyrogallol,9.01,Log unit,Oc1c(cccc1O)O,1,25,?C
OC1=CC=CC([O-])=C1O,pyrogallol,10.9,Log unit,Oc1cccc([O-])c1O,2,25,?C
OC1=C([O-])C=CC=C1[O-],pyrogallol,14,Log unit,[O-]c1cccc(c1O)[O-],oh,25,?C
OC1=CC(O)=C(O)C=C1,"1,2,4-benzentriol",9.1,Log unit,Oc1c(O)ccc(c1)O,2,25,?C
OC1=CC([O-])=C(O)C=C1,"1,2,4-benzentriol",11.8,Log unit,Oc1cc(c(O)cc1)[O-],2,25,?C
OC1=CC(Cl)=C(O)C(Cl)=C1,"2,6-Dichlorohydroquinone",7.34,Log unit,Oc1c(Cl)cc(cc1Cl)O,2,25,?C
OC1=CC(=C(O)C=C1)N(=O)=O,mononitrohydrquinone,7.63,Log unit,Oc1ccc(O)cc1N(=O)=O,1,25,?C
OC1=C(O)C(=CC=C1)N(=O)=O,3-nitropyrocatechine,6.49,Log unit,Oc1c(cccc1N(=O)=O)O,2,25,?C
OC1=CC(=C(O)C(=C1)N(=O)=O)N(=O)=O,"2,6-dinitrohydroquinone",4.42,Log unit,Oc1c(cc(O)cc1N(=O)=O)N(=O)=O,2,25,?C
OCC1=CC=CC(CO)=C1O,"2,6-dimethylolphenol",9.66,Log unit,Oc1c(cccc1CO)CO,1,25,?C
OCC1=CC=CC=C1O,2-hydroxymethyl-phenol,9.84,Log unit,Oc1ccccc1CO,2,25,?C
OCC1=CC=CC(O)=C1,3-Hydroxymethyl-phenol,9.83,Log unit,Oc1cccc(c1)CO,1,25,?C
OCC1=CC=C(O)C=C1,4-hydroxymethyl-phenol,9.82,Log unit,Oc1ccc(cc1)CO,2,25,?C
NC1=C(O)C(=CC(=C1)N(=O)=O)N(=O)=O,"2-amino-4,6-dinitro-phenol",1,Log unit,Nc1c(O)c(cc(c1)N(=O)=O)N(=O)=O,nr2,25,?C
COC(=O)C1=C(O)C(O)=CC=C1,"2,3-dihydroxybenzoate-methyl",9.1,Log unit,Oc1c(c(C(=O)OC)ccc1)O,2,25,?C
COC(=O)C1=C(O)C=C(O)C=C1,"2,4-dihydroxybenzoate-methyl",8.02,Log unit,Oc1cc(c(C(=O)OC)cc1)O,2,25,?C
COC(=O)C1=C(O)C=CC(O)=C1,"2,5-dihydroxybenzoate-methyl",9.63,Log unit,Oc1ccc(c(C(=O)OC)c1)O,2,25,?C
COC(=O)C1=C(O)C=CC=C1O,"2,6-dihydroxybenzoate-methyl",9.26,Log unit,Oc1c(C(=O)OC)c(ccc1)O,2,25,?C
COC(=O)C1=CC(O)=C(O)C=C1,"3,4-dihydroxybenzoate-methyl",8.18,Log unit,Oc1c(cc(C(=O)OC)cc1)O,1,25,?C
CCOC(=O)C1=CC(O)=C(O)C=C1,"3,4-dihydroxybenzoate-methyl",8.08,Log unit,Oc1c(cc(C(=O)OCC)cc1)O,2,25,?C
OC1=C(N=O)C(O)=C(N=O)C2=C1C=CC=C2,2-nitroso-1-napthol,4.5,Log unit,Oc1c(c(O)c2ccccc2c1N=O)N=O,2,25,?C
OC1=CC2=C(C=C1O)C=C(C=C2)S([O-])(=O)=O,"6,7-Dihydroxy-2-naphthalenesulfonic acid",8.1,Log unit,Oc1c(cc2ccc(cc2c1)S(=O)(=O)[O-])O,1,25,?C
OC1=CC2=C(C=CC(=C2)S([O-])(=O)=O)C=C1[O-],"6,7-Dihydroxy-2-naphthalenesulfonic acid",11.85,Log unit,[O-]c1cc2ccc(cc2cc1O)S(=O)(=O)[O-],oh,25,?C
OC(=O)C1=CC=CC=C1N=NC1=CC=C(O)C=C1,2-carboxy-4'-hydroxyazobenzene,-1.26,Log unit,N(=Nc1ccccc1C(=O)O)c1ccc(O)cc1,4,25,?C
OC(=O)C1=CC=C(C=C1)N=NC1=CC=C(O)C=C1,4-carboxy-4'-hydroxy-azobenzene,-1.64,Log unit,N(=Nc1ccc(C(=O)O)cc1)c1ccc(O)cc1,4,25,?C
OC1=CC=C(C=C1)N=NC1=CC=CC=C1,4-hydroxy-azobenzene,-0.93,Log unit,N(=Nc1ccccc1)c1ccc(O)cc1,2,25,?C
CN(C)C1C2CC3C(=C(O)C2(O)C(=O)C(C(N)=O)=C1O)C(=O)C1=C(C=CC=C1O)C3(C)O,tetracycline,3.3,Log unit,OC1=C(C(=O)C2(C(C1N(C)C)CC1C(c3c(c(O)ccc3)C(=O)C1=C2O)(O)C)O)C(=O)N,3,25,?C
CN(C)C1C2CC3C(=C(O)C2(O)C(=O)C(C(N)=O)=C1[O-])C(=O)C1=C(C=CC=C1O)C3(C)O,tetracycline,7.7,Log unit,N(C1C2CC3C(c4c(c(O)ccc4)C(=O)C3=C(O)C2(C(=O)C(=C1[O-])C(=O)N)O)(O)C)(C)C,3,25,?C
CN(C)C1C2C(O)C3C(=C(O)C2(O)C(=O)C(C(N)=O)=C1O)C(=O)C1=C(C=CC=C1O)C3(C)O,Hydroxytetracycline,3.2,Log unit,OC1=C(C(=O)C2(C(C1N(C)C)C(C1C(c3c(c(O)ccc3)C(=O)C1=C2O)(O)C)O)O)C(=O)N,4,25,?C
CN(C)C1C2CC3C(=C(O)C2(O)C(=O)C(C(N)=O)=C1O)C(=O)C1=C(C(Cl)=CC=C1O)C3(C)O,Chlorotetracycline,3.27,Log unit,OC1=C(C(=O)C2(C(C1N(C)C)CC1C(c3c(Cl)ccc(O)c3C(=O)C1=C2O)(O)C)O)C(=O)N,5,25,?C
CN(C)C1C2CC3C(=C([O-])C2(O)C(=O)C(C(N)=O)=C1[O-])C(=O)C1=C(C(Cl)=CC=C1O)C3(C)O,Chlorotetracycline,9.27,Log unit,Oc1ccc(Cl)c2c1C(=O)C1=C([O-])C3(C(=O)C(=C(C(C3CC1C2(O)C)N(C)C)[O-])C(=O)N)O,6,25,?C
OCC1OC(=O)C(O)=C(O)C1O,glucoascorbic acid,4.15,Log unit,OC1=C(C(=O)OC(C1O)CO)O,4,25,?C
OCC(O)C1OC(=O)C(O)=C1[O-],Ascorbic acid,12.2,Log unit,OC1=C(C(OC1=O)C(O)CO)[O-],3,25,?C
OCC(O)C(O)C(O)C(O)C=O,glucose,12.43,Log unit,OC(C=O)C(O)C(O)C(O)CO,1,25,?C
OCC(O)C(O)C(O)C(=O)CO,sorbose,13.855,Log unit,OC(C(C(=O)CO)O)C(O)CO,5,25,?C
OC1=C(C(=O)C([O-])=C(C1=O)N(=O)=O)N(=O)=O,"2,5-dihydroxy-3,6-dinitrobenzoquinone",-0.8,Log unit,[O-]C1=C(C(=O)C(=C(N(=O)=O)C1=O)O)N(=O)=O,oh,25,?C
OC1=C(O)C2=C(C=C1)C(=O)C1=CC=CC=C1C2=O,"1,2-Dihydroxyanthraquinone",7.45,Log unit,Oc1c(O)c2C(=O)c3ccccc3C(=O)c2cc1,1,25,?C
[NH2+]C(S)S,aminomethanedithioic acid,2.95,Log unit,SC(S)[NH2+],sh,25,?C
SCC(S)CC=O,"2,3-Dimercapto-1-propanol",8.7,Log unit,SC(CC=O)CS,1,25,?C
[O-]S(=O)(=O)CC(S)CS,"2,3-dimercapto-1-propansulfonic acid",8.9,Log unit,SC(CS(=O)(=O)[O-])CS,1,25,?C
[NH2+]S(O)(=O)=O,Sulphamic acid,1,Log unit,OS(=O)(=O)[NH2+],so3h,25,?C
OP(O)(=O)CP(O)(O)=O,Methylenediphosphonic acid,2,Log unit,OP(=O)(CP(=O)(O)O)O,po2h,25,?C
OP(O)(=O)CP(O)([O-])=O,Methylenediphosphonic acid,2.3,Log unit,OP(=O)(CP(=O)([O-])O)O,2,25,?C
OP([O-])(=O)CP(O)([O-])=O,Methylenediphosphonic acid,7.4,Log unit,OP(=O)(CP(=O)([O-])O)[O-],po2h,25,?C
[NH2+]CP(O)(O)=O,AMINOMETHYLPHOSPHONIC ACID,1.85,Log unit,OP(=O)(O)C[NH2+],po2h,25,?C
[NH2+]CP(O)([O-])=O,AMINOMETHYLPHOSPHONIC ACID,5.35,Log unit,OP(=O)([O-])C[NH2+],po2h,25,?C
[NH2+]CCP(O)(O)=O,2-aminoethylphosphonic acid,2.45,Log unit,OP(=O)(O)CC[NH2+],po2h,25,?C
[NH2+]CCP(O)([O-])=O,2-aminoethylphosphonic acid,7,Log unit,OP(=O)([O-])CC[NH2+],po2h,25,?C
[NH2+]CCCCP(O)(O)=O,4-amino-n-butylphosphonic acid,2.55,Log unit,OP(=O)(O)CCCC[NH2+],po2h,25,?C
[NH2+]CCCCP(O)([O-])=O,4-amino-n-butylphosphonic acid,7.55,Log unit,OP(=O)([O-])CCCC[NH2+],po2h,25,?C
[NH2+]CCCCCP(O)(O)=O,5-amino-n-pentylphosphonic acid,2.6,Log unit,OP(=O)(O)CCCCC[NH2+],po2h,25,?C
[NH2+]CCCCCP(O)([O-])=O,5-amino-n-pentylphosphonic acid,7.6,Log unit,OP(=O)([O-])CCCCC[NH2+],po2h,25,?C
OC1=CC=C(CS)C=C1,4-METHIOPHENOL,9.53,Log unit,Oc1ccc(CS)cc1,phenol,25,?C
OC1=CC2=C(CCC2)C=C1,5-INDANOL,10.32,Log unit,Oc1cc2c(cc1)CCC2,phenol,25,?C
CC1=C(C=C(O)C=C1)[N+]([O-])=O,3-NITRO-4-CRESOL,8.62,Log unit,Oc1ccc(c([N+](=O)[O-])c1)C,phenol,25,?C
CCC(CC(O)=O)C(O)=O,ethylpyrotartaric acid,4.38,Log unit,OC(=O)C(CC(=O)O)CC,co2h,25,?C
CCC(CC)(CC(O)=O)C(O)=O,"alpha,alpha-diethylprotartaric acid",4.14,Log unit,OC(=O)C(CC(=O)O)(CC)CC,co2h,25,?C
CCC(C(O)=O)C(CC)(CC)C(O)=O,triethylprotartaric acid,4,Log unit,OC(=O)C(C(C(=O)O)CC)(CC)CC,co2h,25,?C
CC(CC(O)=O)CC(O)=O,beta-Methylglutaric acid,4.65,Log unit,OC(=O)CC(CC(=O)O)C,co2h,25,?C
CCC(CC(O)=O)CC(O)=O,beta-ethylglutaric acid,4.585,Log unit,OC(=O)CC(CC(=O)O)CC,co2h,25,?C
CCCC(CC(O)=O)CC(O)=O,beta-n-propylglutaric acid,4.61,Log unit,OC(=O)CC(CC(=O)O)CCC,1,25,?C
CC(C)C(CC(O)=O)CC(O)=O,beta-Isopropylglutaric acid,4.615,Log unit,OC(=O)CC(CC(=O)O)C(C)C,2,25,?C
OC(=O)CC=CC(O)=O,Glutaconic acid,4.1,Log unit,OC(=O)CC=CC(=O)O,co2h,25,?C
OC(=O)C1CCC(C1)C(O)=O,"trans-cyclopentane-1,3-dicarboxylic acid",4.66,Log unit,OC(=O)C1CC(C(=O)O)CC1,co2h,25,?C
OC(=O)CC1CCCC1C(O)=O,trans-cyclopentane-1-carboxylic acid-2-acetic acid,4.7,Log unit,OC(=O)CC1C(C(=O)O)CCC1,co2h,25,?C
OC(=O)CC1CCCC1CC(O)=O,"trans-cyclopentyl-1,2-diacetic acid",4.73,Log unit,OC(=O)CC1C(CC(=O)O)CCC1,1,25,?C
OC(=O)C1CCCC(C1)C(O)=O,"trans-cyclohexane-1,3-dicarboxylic acid",4.61,Log unit,OC(=O)C1CC(C(=O)O)CCC1,co2h,25,?C
OC(=O)C1CCCC=C1C([O-])=O,"1-cyclohexene-1,6-dicarboxylic acid",5.31,Log unit,[O-]C(=O)C1=CCCCC1C(=O)O,1,25,?C
OC(=O)CC1CCCCC1CC(O)=O,"trans-cyclohexyl-1,2-diacetic acid",4.68,Log unit,OC(=O)CC1C(CC(=O)O)CCCC1,1,25,?C