Smiles,Name,pKa,pKa Unit,Ionizable center smiles,IC group,Temperature,Temperature Unit
CCCCCCCCCCCCCCN,1-Aminotetradecane,10.62,Log unit,NCCCCCCCCCCCCCC,nr2,25,?C
CCCCCCCCCCCCCCN(CC(C)O)CC(C)O,1-(bis-2-hydroxypropyl)aminotetradecane,5.6,Log unit,N(CC(O)C)(CC(O)C)CCCCCCCCCCCCCC,nr2,25,?C
CCCCCCCCCCCCCCCN,1-amino-pentadecane,10.61,Log unit,NCCCCCCCCCCCCCCC,nr2,25,?C
CCCCCCCCCCCCCCCNCCCCCCCCCCCCCCC,1-pentadecylaminopentadecane,11,Log unit,N(CCCCCCCCCCCCCCC)CCCCCCCCCCCCCCC,nr2,25,?C
CCCCCCCCCCCCCCCCN,1-Aminohexadecane,10.61,Log unit,NCCCCCCCCCCCCCCCC,nr2,25,?C
CCCCCCCCCCCCCCCCN(CC(C)O)CC(C)O,1-(bis-2-hydroxypropyl)aminohexadecane,4.8,Log unit,N(CC(O)C)(CC(O)C)CCCCCCCCCCCCCCCC,nr2,25,?C
CCCCCCCCCCCCCCCCCN,1-Aminoheptadecane,10.6,Log unit,NCCCCCCCCCCCCCCCCC,nr2,25,?C
CCCCCCCCCCCCCCCCCCN(CC(C)O)CC(C)O,1-(bis-2-hydroxypropyl)aminooctadecane,4.6,Log unit,N(CC(O)C)(CC(O)C)CCCCCCCCCCCCCCCCCC,nr2,25,?C
CCCCCCCCCCCCCCCCCCNCCCCCCCCCCCCCCCCCC,1-octadecylaminooctadecane,11,Log unit,N(CCCCCCCCCCCCCCCCCC)CCCCCCCCCCCCCCCCCC,nr2,25,?C
CCCCCCCCCCCCCCCCCCN,1-amino-octadecane,10.6,Log unit,NCCCCCCCCCCCCCCCCCC,nr2,25,?C
CCCCCCCCCCCCCCCCCCCCCCN,1-amino-docosane,10.6,Log unit,NCCCCCCCCCCCCCCCCCCCCCC,nr2,25,?C
CN(C)CCO,1-dimethylamino-2-hydroxyethane,9.245,Log unit,N(CCO)(C)C,nr2,25,?C
CNCCOC(C1=CC=CC=C1)C1=CC=CC=C1,1-diphenylmethoxy-2-methylaminoethane,9,Log unit,N(CCOC(c1ccccc1)c1ccccc1)C,nr2,25,?C
CCNCC,ethylaminoethane,11.1,Log unit,N(CC)CC,nr2,25,?C
CCN(C)CC,N-ethyl-N-methylaminoethane,10.46,Log unit,N(C)(CC)CC,nr2,25,?C
OCCN(CCO)CCO,"1-hydroxy-2-(2,2'-bishydroxyethyl)aminoethane",7.66655,Log unit,N(CCO)(CCO)CCO,nr2,25,?C
OCCNCCO,1-hydroxy-2-(2-hydroxyethyl)aminoethane,8.776,Log unit,N(CCO)CCO,nr2,25,?C
CN(CCO)CCO,1-hydroxy-2-(2-hydroxyethylmethyl)aminoethane,8.545,Log unit,N(CCO)(CCO)C,nr2,25,?C
NCCOP([O-])([O-])=O,2-Aminoethyl dihydrogen phosphate,10.33,Log unit,NCCOP(=O)([O-])[O-],nr2,25,?C
[NH3+]CCOP(O)([O-])=O,2-Aminoethyl dihydrogen phosphate,5.8,Log unit,OP(=O)([O-])OCC[NH3+],po2h,25,?C
NCCOS([O-])(=O)=O,2-Aminoethyl hydrogen sulphate,9.4,Log unit,NCCOS(=O)(=O)[O-],nr2,25,?C
NCCSCCO,2-amino-2'-hydroxy-diethyl sulfide,9.41,Log unit,NCCSCCO,nr2,25,?C
NCCSSCCN,bis(2-aminoethyl)disulphide,8.86,Log unit,NCCSSCCN,nr2,25,?C
CN(C)CCSCCN(C)C,bisdimethylaminoethyl sulphide,8.9,Log unit,N(CCSCCN(C)C)(C)C,nr2,25,?C
CN(C)CCSCC[NH+](C)C,bisdimethylaminoethyl sulphide,8.3,Log unit,[NH+](CCSCCN(C)C)(C)C,nr2,25,?C
NCCSSCCN,"2,2'-diaminodiethyl disulphide",9.28,Log unit,NCCSSCCN,nr2,25,?C
NCCSSCC[NH3+],"2,2'-diaminodiethyl disulphide",9.1,Log unit,NCCSSCC[NH3+],nr2,25,?C
NCCSCCN,"2,2'-diaminodiethyl sulphide",9.34,Log unit,NCCSCCN,nr2,25,?C
NCCSCC[NH3+],"2,2'-diaminodiethyl sulphide",9.14,Log unit,NCCSCC[NH3+],nr2,25,?C
CN(C)CCCC(C)=O,1-acetyl-3-dimethylaminopropane,9.07,Log unit,N(CCCC(=O)C)(C)C,nr2,25,?C
CC(CN(C)C)C(C(C)=O)(C1=CC=CC=C1)C1=CC=CC=C1,"1-acetyl-3-dimethylamino-2-methyl-1,1-diphenylpropane",9.53,Log unit,N(CC(C(c1ccccc1)(c1ccccc1)C(=O)C)C)(C)C,nr2,25,?C
CCCN,1-amino-propane,10.699,Log unit,NCCC,nr2,25,?C
CC(C)N,2-AMINO-PROPANE,10.7,Log unit,NC(C)C,nr2,25,?C
[NH3+]CCCNCCC[NH3+],1-amino-3-(3-aminopropyl)aminopropane,7.9,Log unit,N(CCC[NH3+])CCC[NH3+],nr2,25,?C
CN(CCCN)CCCN,1-amino-3-(3-aminoproplylmethyl)aminopropane,9.8,Log unit,NCCCN(C)CCCN,nr2,25,?C
CN(CCC[NH3+])CCC[NH3+],1-amino-3-(3-aminoproplylmethyl)aminopropane,6.5,Log unit,N(CCC[NH3+])(C)CCC[NH3+],nr2,25,?C
NCCCBr,1-amino-3-bromo-propane,8.93,Log unit,NCCCBr,nr2,25,?C
CC(CN)C#N,1-amino-2-cyanopropane,7.75,Log unit,NCC(C#N)C,nr2,25,?C
CC(N)CC#N,2-amino-1-cyanopropane,7.85,Log unit,NC(CC#N)C,nr2,25,?C
CC(C)(N)C#N,2-amino-2-cyano-propane,5.3,Log unit,NC(C#N)(C)C,nr2,25,?C
NC(CO)(CO)CO,2-amino-2-hydroxymethylpropane,7.93885,Log unit,NC(CO)(CO)CO,nr2,25,?C
CC(O)CN,1-Amino-2-hydroxypropane,9.619,Log unit,NCC(O)C,nr2,25,?C
CC(N)(CO)CO,"2-amino-1,3-dihydroxy-2-methyl-propane",9.1,Log unit,NC(CO)(C)CO,nr2,25,?C
CC(C)(C)CN,"1-amino-2,2-dimethyl-propane",10.155,Log unit,NCC(C)(C)C,nr2,25,?C
NCCCO,1-amino-3-hydroxy-propane,9.905001,Log unit,NCCCO,nr2,25,?C
CC(N)CO,2-amino-1-hydroxy-propane,9.43,Log unit,NC(CO)C,nr2,25,?C
CC(C)(O)CN,1-amino-2-hydroxy-2-methyl-propane,9.25,Log unit,NCC(O)(C)C,nr2,25,?C
CC(C)(N)CO,2-amino-1-hydroxy-2-methyl-propane,9.715,Log unit,NC(CO)(C)C,nr2,25,?C
CC(C)(N)CO,2-amino-2-hydroxymethylpropane,9.853,Log unit,NC(CO)(C)C,nr2,25,?C
CC(C)(C)N,2-amino-2-methyl-propane,10.54,Log unit,NC(C)(C)C,nr2,25,?C
CC(C)CN,1-amino-2-methyl-propane,10.47,Log unit,NCC(C)C,nr2,25,?C
NCC(Cl)(Cl)CCl,"1-amino-2,2,3-trichloropropane",6,Log unit,NCC(CCl)(Cl)Cl,nr2,25,?C
NCCC(Cl)(Cl)Cl,"1-amino-3,3,3-tricloro-propane",9.65,Log unit,NCCC(Cl)(Cl)Cl,nr2,25,?C
NCCC(F)(F)F,"1-amino-3,3,3-trifluoro-propane",8.7,Log unit,NCCC(F)(F)F,nr2,25,?C
CN(C)CCC(C(=O)C1=CC=CC=C1)(C1=CC=CC=C1)C1=CC=CC=C1,"1-benzoyl-3-dimethylamino-1,1-diphenylpropane",9.47,Log unit,N(CCC(C(=O)c1ccccc1)(c1ccccc1)c1ccccc1)(C)C,nr2,25,?C
CCN(CC)CCC(OC(=O)CC1=CC=CC=C1)C1=CC=CC=C1,1-benzylcarbonyl-3-diethylamino-1-phenylpropane,9.46,Log unit,N(CCC(OC(=O)Cc1ccccc1)c1ccccc1)(CC)CC,nr2,25,?C
CN(C)CCC(C(=O)CC1=CC=CC=C1)C1=CC=CC=C1,1-benzylcarbonyl-3-dimethylamino-1-phenylpropane,8.99,Log unit,N(CCC(C(=O)Cc1ccccc1)c1ccccc1)(C)C,nr2,25,?C
CCCN(CCCl)CCCl,1-bis(2-chloroethyl)aminopropane,6.84,Log unit,N(CCCl)(CCCl)CCC,nr2,25,?C
CC(C)N(CCCl)CCCl,2-bis(2-chloroethyl)aminopropane,6.95,Log unit,N(CCCl)(CCCl)C(C)C,nr2,25,?C
CCN(CC)CCCN(CC)CC,"1,3-bisdiethylaminopropane",9.9,Log unit,N(CC)(CC)CCCN(CC)CC,nr2,25,?C
CCN(CC)CCC[NH+](CC)CC,"1,3-bisdiethylaminopropane",8.5,Log unit,[NH+](CC)(CC)CCCN(CC)CC,nr2,25,?C
CCN(CC)CC(O)CN(CC)CC,"1,3-bisdiethylamino-2-hydroxypropane",9.5,Log unit,N(CC(O)CN(CC)CC)(CC)CC,nr2,25,?C
CCN(CC)CC(O)C[NH+](CC)CC,"1,3-bisdiethylamino-2-hydroxypropane",7.44,Log unit,[NH+](CC(O)CN(CC)CC)(CC)CC,nr2,25,?C
CC(CN(C)C)N(C)C,"1,2-bisdimethylaminopropane",9.19,Log unit,N(C)(C)CC(N(C)C)C,nr2,25,?C
CN(C)CCCN(C)C,"1,3-bisdimethylaminopropane",9.5,Log unit,N(C)(C)CCCN(C)C,nr2,25,?C
CN(C)CCC[NH+](C)C,"1,3-bisdimethylaminopropane",8,Log unit,[NH+](C)(C)CCCN(C)C,nr2,25,?C
CCCN(CC(C)O)CC(C)O,1-(bis-2-hydroxypropyl)aminopropane,8.6,Log unit,N(CC(O)C)(CCC)CC(O)C,nr2,25,?C
CC(O)CN(CCC[NH+](C)C)CC(C)O,1-(bis-2-hydroxypropyl)amino-3-dimethylaminopropane,6.8,Log unit,N(CC(O)C)(CC(O)C)CCC[NH+](C)C,nr2,25,?C
CCC(C)N(CC(C)O)CC(C)O,1-(bis-2-hydroxypropyl)amino-2-methylpropane,8.8,Log unit,N(CC(O)C)(CC(O)C)C(C)CC,nr2,25,?C
CC(O)CN(CC(C)O)C(C)(C)C,2-(bis-2-hydroxypropyl)amino-2-methylpropane,9.4,Log unit,N(CC(O)C)(CC(O)C)C(C)(C)C,nr2,25,?C
CCN(CC)CCC(C([O-])=O)(C1=CC=CC=C1)C1=CC=CC=C1,"1-carboxy-3-diethylamino-1,1-diphenylpropane",10.59,Log unit,N(CCC(c1ccccc1)(c1ccccc1)C(=O)[O-])(CC)CC,nr2,25,?C
CCN(CC)CCCC#N,1-cyano-3-diethylaminopropane,9.29,Log unit,N(CCCC#N)(CC)CC,nr2,25,?C
CCN(CC)CCC(C#N)(C1=CC=CC=C1)C1=CC=CC=C1,"1-cyano-3-diethylamino-1,1-diphenylpropane",9.08,Log unit,N(CCC(c1ccccc1)(c1ccccc1)C#N)(CC)CC,nr2,25,?C
CN(C)CCC(C#N)(C1=CC=CC=C1)C1=CC=CC=C1,"1-cyano-3-dimethylamino-1,1-diphenylpropane",8.26,Log unit,N(CCC(c1ccccc1)(c1ccccc1)C#N)(C)C,nr2,25,?C
CC(CN(C)C)C(C#N)(C1=CC=CC=C1)C1=CC=CC=C1,"1-cyano-3-dimethylamino-2-methyl-1,1-diphenylpropane",8.005,Log unit,N(CC(C(c1ccccc1)(c1ccccc1)C#N)C)(C)C,nr2,25,?C
CC(CC(C#N)(C1=CC=CC=C1)C1=CC=CC=C1)N(C)C,"1-cyano-3-dimethylamino-3-methyl-1,1-diphenylpropane",8.68,Log unit,N(C(CC(c1ccccc1)(c1ccccc1)C#N)C)(C)C,nr2,25,?C
CC(N)CN,"1,2-diamino-propane",9.985001,Log unit,NCC(N)C,nr2,25,?C
CC(N)C[NH3+],"1,2-diamino-propane",7.1,Log unit,NC(C[NH3+])C,nr2,25,?C
NCCCN,"1,3-diamino-propane",10.17,Log unit,NCCCN,nr2,25,?C
NCCC[NH3+],"1,3-diamino-propane",8.6,Log unit,NCCC[NH3+],nr2,25,?C
NCC(CN)CN,"1,3-DIAMINO-2-AMINOMETHYLPROPANE",10.03,Log unit,NCC(CN)CN,nr2,25,?C
NCC(CN)C[NH3+],"1,3-DIAMINO-2-AMINOMETHYLPROPANE",8.86,Log unit,NCC(C[NH3+])CN,nr2,25,?C
NCC(C[NH3+])C[NH3+],"1,3-DIAMINO-2-AMINOMETHYLPROPANE",7.36,Log unit,NCC(C[NH3+])C[NH3+],nr2,25,?C
CC(C)(CN)CN,"1,3-diamino-2,2-dimethylpropane",9.9,Log unit,NCC(C)(C)CN,nr2,25,?C
CC(C)(CN)C[NH3+],"1,3-diamino-2,2-dimethylpropane",8.5,Log unit,NCC(C[NH3+])(C)C,nr2,25,?C
NCC(O)CN,"1,3-Diamino-2-hydroxypropane",9.3,Log unit,NCC(O)CN,nr2,25,?C
NCC(O)C[NH3+],"1,3-Diamino-2-hydroxypropane",8,Log unit,NCC(O)C[NH3+],nr2,25,?C
CC(C)([NH3+])CN,"1,2-Diamino-2-methylpropane",6.79,Log unit,NCC([NH3+])(C)C,nr2,25,?C
CC[NH+](CC)CCC(C(=N)NC1=CC=CC=C1)C1=CC=CC=C1,1-diethylamino-3-phenyl-3-phenylamidinopropane,7.18,Log unit,C(=N)(Nc1ccccc1)C(c1ccccc1)CC[NH+](CC)CC,neth,25,?C
CC(O)CN(CC(C)O)CC(C)O,1-di(2-hydroxypropyl)amino-2-hydroxypropane,7.755,Log unit,N(CC(O)C)(CC(O)C)CC(O)C,nr2,25,?C
CC(C)CN(CC(C)C)CC(C)C,1-di-isobutylamino-2-methylpropane,10.32,Log unit,N(CC(C)C)(CC(C)C)CC(C)C,nr2,25,?C
CCCN(C)C,1-dimethylaminopropane,9.665,Log unit,N(C)(C)CCC,nr2,25,?C
CC(C)N(C)C,2-dimethylaminopropane,10.47,Log unit,N(C)(C)C(C)C,nr2,25,?C
CN(C)CCCC(=O)C(CCN(C)C)C1=CC=CC=C1,1-dimethylamino-3-(3-dimethylamino-1-phenyl)propylcarbonylpropane,8.9,Log unit,N(CCCC(=O)C(c1ccccc1)CCN(C)C)(C)C,nr2,25,?C
CN(C)CCCN(C)CCCN(C)C,1-dimethylamino-3-(3-dimethylamino)propylmethylaminopropane,9.7,Log unit,N(C)(C)CCCN(C)CCCN(C)C,nr2,25,?C
CN(CCC[NH+](C)C)CCC[NH+](C)C,1-dimethylamino-3-(3-dimethylamino)propylmethylaminopropane,6.4,Log unit,[NH+](C)(C)CCCN(C)CCC[NH+](C)C,nr2,25,?C
CN(C)CCC(C1=CC=CC=C1)C1=CC=CC=C1,"1-dimethylamino-3,3-diphenylpropane",9.35,Log unit,N(CCC(c1ccccc1)c1ccccc1)(C)C,nr2,25,?C
CCOC(=O)C(CC(C)N(C)C)(C1=CC=CC=C1)C1=CC=CC=C1,"1-dimethylamino-3-ethoxycarbonyl-1-methyl-3,3-diphenylpropane",10.12,Log unit,N(C)(C)C(C)CC(c1ccccc1)(c1ccccc1)C(=O)OCC,nr2,25,?C
CCOC(=O)C(CCN(C)C)(C1=CC=CC=C1)C1=CC=CC=C1,"1-dimethylamino-3-ethylcarbonyl-3,3-diphenylpropane",9.07,Log unit,N(CCC(c1ccccc1)(c1ccccc1)C(=O)OCC)(C)C,nr2,25,?C
CC(C)CN(C)C,1-dimethylamino-2-methylpropane,10.08,Log unit,N(C)(C)CC(C)C,nr2,25,?C
CN(C)C(C)(C)C,2-dimethylamino-2-methylpropane,10.69,Log unit,N(C)(C)C(C)(C)C,nr2,25,?C
C[NH+](C)CCC(C(=N)NC1=CC=CC=C1)C1=CC=CC=C1,1-dimethylamino-3-phenyl-3-phenylamidopropane,7.13,Log unit,C(=N)(Nc1ccccc1)C(c1ccccc1)CC[NH+](C)C,neth,25,?C
CCCN(CCC)CCC,1-dipropylaminopropane,10.455,Log unit,N(CCC)(CCC)CCC,nr2,25,?C
CC(O)CNCCO,2-hydroxy-1-hydroxyethylaminepropane,8.81,Log unit,N(CCO)CC(O)C,nr2,25,?C
CC(C)N(CCO)C(C)C,2-N-(2-hydroxyethyl)-N-isopropylaminopropane,10.08,Log unit,N(CCO)(C(C)C)C(C)C,nr2,25,?C
CC(O)CN(C)CCO,2-hydroxy-1-(2-hydroxyethylmethylamino)propane,8.7,Log unit,N(CCO)(C)CC(O)C,nr2,25,?C
CC(O)CNC(C)(C)C,2-(2-hydroxypropylamino)-2-methylpropane,10,Log unit,N(CC(O)C)C(C)(C)C,nr2,25,?C
CC(C)CNCC(C)C,1-isobutylamino-2-methylpropane,10.705,Log unit,N(CC(C)C)CC(C)C,nr2,25,?C
CC(C)NC(C)C,2-isopropylaminopropane,11.045,Log unit,N(C(C)C)C(C)C,nr2,25,?C
CCCNCCC,1-propylaminopropane,10.895,Log unit,N(CCC)CCC,nr2,25,?C
NC(C[NH3+])C[NH3+],"1,2,3-triaminopropane",3.99,Log unit,NC(C[NH3+])C[NH3+],nr2,25,?C
N#CCNCC#N,cyanocyanomethylaminomethane,0.2,Log unit,N(CC#N)CC#N,nr2,25,?C
CN(C)CC#N,N-cyanomethylaminomethane,4.15,Log unit,N(CC#N)(C)C,nr2,25,?C
CN(C)C,dimethylaminomethane,9.692,Log unit,N(C)(C)C,nr2,25,?C
CNO,N-hydroxyaminomethane,5.96,Log unit,N(O)C,nr2,25,?C
CN(C)O,N-hydroxy-N-methylaminomethane,5.2,Log unit,N(O)(C)C,nr2,25,?C
CNOC,N-methoxyaminomethane,4.75,Log unit,N(OC)C,nr2,25,?C
CON(C)C,N-methoxyamino-N-methylmethane,3.65,Log unit,N(OC)(C)C,nr2,25,?C
CCN(CC)CCC(C)=O,1-acetyl-2-diethylaminoethane,9.04,Log unit,N(CCC(=O)C)(CC)CC,nr2,25,?C
CN(C)CCC(C)=O,1-acetyl-2-dimethylaminoethane,8.37,Log unit,N(CCC(=O)C)(C)C,nr2,25,?C
CCN,amino-ethane,10.7985,Log unit,NCC,nr2,25,?C
NCCOCCN,1-amino-2-(2-amino)ethoxyethane,9.3,Log unit,NCCOCCN,nr2,25,?C
NCCOCC[NH3+],1-amino-2-(2-amino)ethoxyethane,8.9,Log unit,NCCOCC[NH3+],nr2,25,?C
[NH3+]CCNCC[NH3+],1-amino-2-(2-aminoethyl)aminoethane,4.6,Log unit,N(CC[NH3+])CC[NH3+],nr2,25,?C
NCCCl,1-amino-2-chloro-ethane,8.56,Log unit,NCCCl,nr2,25,?C
NCCC#N,1-amino-2-cyano-ethane,7.8,Log unit,NCCC#N,nr2,25,?C
NCC(F)F,"1-amino-2,2-difluoro-ethane",7.09,Log unit,NCC(F)F,nr2,25,?C
NCCF,1-amino-2-fluoro-ethane,8.79,Log unit,NCCF,nr2,25,?C
NCC[NH2+]CC1=CC=CC=C1,1-amino-2benzylaminoethane,6.5,Log unit,NCC[NH2+]Cc1ccccc1,nr2,25,?C
NCCBr,1-amino-2-bromo-ethane,8.49,Log unit,NCCBr,nr2,25,?C
CCCC[NH2+]CCN,1-amino-2-butylaminoethane,7.5,Log unit,NCC[NH2+]CCCC,nr2,25,?C
NCCC#N,1-amino-2-cyano-ethane,7.7,Log unit,NCCC#N,nr2,25,?C
CC[NH+](CC)CCN,1-AMINO-2-DIETHYLAMINOETHANE,7.4,Log unit,NCC[NH+](CC)CC,nr2,25,?C
C[NH+](C)CCN,1-amino-2-dimethylaminoethane,6.6,Log unit,NCC[NH+](C)C,nr2,25,?C
NCCOCCSCC[NH3+],1-(2-amino)ethoxy-2-(2-amino)ethylthioethane,8.8,Log unit,NCCOCCSCC[NH3+],nr2,25,?C
CCNCCN,1-amino-2-ethylaminoethane,10.26,Log unit,NCCNCC,nr2,25,?C
CC[NH2+]CCN,1-amino-2-ethylaminoethane,7.9,Log unit,NCC[NH2+]CC,nr2,25,?C
[NH3+]CCNCC[NH2+]CCNCC[NH3+],1-(2-aminoethyl)amino-2-[2-(2-aminoethyl)-aminoethyl]aminoethane,4.55,Log unit,N(CC[NH3+])CC[NH2+]CCNCC[NH3+],nr2,25,?C
[NH3+]CCNCC[NH2+]CC[NH2+]CC[NH3+],1-(2-aminoethyl)amino-2-[2-(2-aminoethyl)-aminoethyl]aminoethane,2.95,Log unit,N(CC[NH3+])CC[NH2+]CC[NH2+]CC[NH3+],nr2,25,?C
NCCO,1-amino-2-hydroxy-ethane,9.49,Log unit,NCCO,nr2,25,?C
CNC,methylaminomethane,10.63,Log unit,N(C)C,nr2,25,?C
NCC[NH2+]CCO,1-amino-2-(2-hydroxyethyl)aminoethane,6.8,Log unit,NCC[NH2+]CCO,nr2,25,?C
CC(O)C[NH2+]CCN,1-amino-2-(2-hydroxypropyl)amionethane,6.94,Log unit,NCC[NH2+]CC(O)C,nr2,25,?C
NCC[NH2+]CCCO,1-amino-2-(3-hydroxypropyl)aminoethane,6.78,Log unit,NCC[NH2+]CCCO,nr2,25,?C
CC(C)[NH2+]CCN,1-amino-2-isopropylaminoethane,7.7,Log unit,NCC[NH2+]C(C)C,nr2,25,?C
[NH3+]CCS,1-amino-2-mercaptoethane,8.35,Log unit,SCC[NH3+],sh,25,?C
NCC[S-],1-amino-2-mercaptoethane,10.3,Log unit,NCC[S-],nr2,25,?C
COCCN,1-amino-2-methoxy-ethane,9.445,Log unit,NCCOC,nr2,25,?C
CNCC[NH3+],1-amino-2-methylaminoethane,6.86,Log unit,N(CC[NH3+])C,nr2,25,?C
CC1=CC=C(CNCC[NH3+])C=C1,1-amino-2-(p-methyl)benzylaminoethane,6.51,Log unit,N(Cc1ccc(cc1)C)CC[NH3+],nr2,25,?C
CSCCN,1-amino-2-methylthioethane,9.49,Log unit,NCCSC,nr2,25,?C
NCCNCCC1=CC=CC=C1,1-amino-2-phenethylaminoethane,9.14,Log unit,N(CCc1ccccc1)CCN,nr2,25,?C
NCC[NH2+]CCC1=CC=CC=C1,1-amino-2-phenethylaminoethane,6.9,Log unit,NCC[NH2+]CCc1ccccc1,nr2,25,?C
CCC[NH2+]CCN,1-amino-2-propylaminoethane,7.54,Log unit,NCC[NH2+]CCC,nr2,25,?C
NCC(Cl)(Cl)Cl,"1-amino-2,2,2-trichloro-ethane",5.47,Log unit,NCC(Cl)(Cl)Cl,nr2,25,?C
NCC(F)(F)F,"1-amino-2,2,2-trichloro-ethane",5.7,Log unit,NCC(F)(F)F,nr2,25,?C
CCN(CC)CCC(=O)CC1=CC=CC=C1,1-benzylcarbonyl-2-diethylaminoethane,9.4,Log unit,N(CCC(=O)Cc1ccccc1)(CC)CC,nr2,25,?C
CN(C)CCC(=O)CC1=CC=CC=C1,1-benzylcarbonyl-2-dimethylaminoethane,8.3,Log unit,N(CCC(=O)Cc1ccccc1)(C)C,nr2,25,?C
NCCOCCOCCN,"1,2-bis(2-amino)ethoxyethane",9.58,Log unit,NCCOCCOCCN,nr2,25,?C
NCCOCCOCC[NH3+],"1,2-bis(2-amino)ethoxyethane",9.17,Log unit,NCCOCCOCC[NH3+],nr2,25,?C
[NH3+]CCNCCNCC[NH3+],"1,2-bis(2-aminoethyl)aminoethane",6.3,Log unit,N(CC[NH3+])CCNCC[NH3+],nr2,25,?C
[NH3+]CCNCC[NH2+]CC[NH3+],"1,2-bis(2-aminoethyl)aminoethane",3.6,Log unit,N(CC[NH2+]CC[NH3+])CC[NH3+],nr2,25,?C
NCCSCCSCCN,"1,2-bis(2-aminoethyl)thioethane",9.32,Log unit,NCCSCCSCCN,nr2,25,?C
NCCSCCSCC[NH3+],"1,2-bis(2-aminoethyl)thioethane",8.9,Log unit,NCCSCCSCC[NH3+],nr2,25,?C
CCN(CCCl)CCCl,bis(2-chloroethyl)aminoethane,6.665,Log unit,N(CCCl)(CCCl)CC,nr2,25,?C
COCCN(CCCl)CCCl,1-bis(2-chloroethyl)amino-2-methoxyethane,5.58,Log unit,N(CCCl)(CCCl)CCOC,nr2,25,?C
CCCCNCCNCCCC,"1,2-bisbutylaminoethane",9.9,Log unit,N(CCCC)CCNCCCC,nr2,25,?C
CCCCNCC[NH2+]CCCC,"1,2-bisbutylaminoethane",7.76,Log unit,N(CCCC)CC[NH2+]CCCC,nr2,25,?C
CCN(CCC#N)CCC#N,bis(2-cyanoethyl)aminoethane,4.55,Log unit,N(CCC#N)(CC)CCC#N,nr2,25,?C
CCN(CC#N)CC#N,bis(cyanomethyl)aminoethane,-0.6,Log unit,N(CC#N)(CC)CC#N,nr2,25,?C
CCN(CC)CCN(CC)CC,"1,2-bisdiethylaminoethane",9.3,Log unit,N(CC)(CC)CCN(CC)CC,nr2,25,?C
CCN(CC)CC[NH+](CC)CC,"1,2-bisdiethylaminoethane",6.9,Log unit,N(CC)(CC)CC[NH+](CC)CC,nr2,25,?C
CC(O)CN(CCN(CC(C)O)CC(C)O)CC(C)O,"1,2-bis(di-2-hydroxypropylamino)ethane",8.54,Log unit,N(CC(O)C)(CC(O)C)CCN(CC(O)C)CC(O)C,nr2,25,?C
CC(O)CN(CC[NH+](CC(C)O)CC(C)O)CC(C)O,"1,2-bis(di-2-hydroxypropylamino)ethane",4.6,Log unit,[NH+](CC(O)C)(CC(O)C)CCN(CC(O)C)CC(O)C,nr2,25,?C
CC(=O)OCCN,1-acetoxy-2-aminoethane,8.85,Log unit,NCCOC(=O)C,nr2,25,?C
CN(C)CCN(C)C,"1,2-bisdimethylaminoethane",8.8,Log unit,N(C)(C)CCN(C)C,nr2,25,?C
CN(C)CC[NH+](C)C,"1,2-bisdimethylaminoethane",6,Log unit,[NH+](C)(C)CCN(C)C,nr2,25,?C
CN(CCN(C)CC[NH+](C)C)CC[NH+](C)C,"1,2-bis(2-dimethylamino)ethylmethylaminoethane",5.1,Log unit,[NH+](C)(C)CCN(C)CCN(C)CC[NH+](C)C,nr2,25,?C
CCNCCNCC,"1,2-bisethylaminoethane",10.16,Log unit,N(CC)CCNCC,nr2,25,?C
CCNCC[NH2+]CC,"1,2-bisethylaminoethane",8,Log unit,N(CC[NH2+]CC)CC,nr2,25,?C
CC(C)NCCNC(C)C,"1,2-bisisopropylaminoethane",10.1,Log unit,N(C(C)C)CCNC(C)C,nr2,25,?C
CC(C)NCC[NH2+]C(C)C,"1,2-bisisopropylaminoethane",7.9,Log unit,N(CC[NH2+]C(C)C)C(C)C,nr2,25,?C
CNCCNC,"1,2-bismethylaminoethane",9.9,Log unit,N(C)CCNC,nr2,25,?C
CNCC[NH2+]C,"1,2-bismethylaminoethane",7.7,Log unit,N(C)CC[NH2+]C,nr2,25,?C
CCCNCCNCCC,"1,2-bispropylaminoethane",10,Log unit,N(CCC)CCNCCC,nr2,25,?C
CCCNCC[NH2+]CCC,"1,2-bispropylaminoethane",7.8,Log unit,N(CC[NH2+]CCC)CCC,nr2,25,?C
CCNCCOC(C1=CC=CC=C1)C1=CC=CC=C1,1-(p-bromobenzhydryloxy)-2-dimethylaminoethane,8.64,Log unit,N(CCOC(c1ccccc1)c1ccccc1)CC,nr2,25,?C
ClCCN(CCCl)CCCl,1-chloro-2-(bis-2-chloroethyl)aminoethane,4.505,Log unit,N(CCCl)(CCCl)CCCl,nr2,25,?C
CN(CCCl)CCCl,1-chloro-2-(N-chloroethylmethyl)aminoethane,6.43,Log unit,N(CCCl)(CCCl)C,nr2,25,?C
CCN(CC)CCCl,1-chloro-2-diethylaminoethane,8.98,Log unit,N(CCCl)(CC)CC,nr2,25,?C
CCN(Cl)CC,N-chloro-N-ethylaminoethane,1.02,Log unit,N(Cl)(CC)CC,nr2,25,?C
CN(CCO)CCCl,1-chloro-2-(2-hydroxyethylmethyl)aminoethane,7.645,Log unit,N(CCCl)(C)CCO,nr2,25,?C
N#CCCNCCC#N,1-cyano-2-(2-cyanoethyl)aminoethane,5.23,Log unit,N(CCC#N)CCC#N,nr2,25,?C
CCN(CC)CCC#N,1-cyano-2-diethylaminoethane,7.625,Log unit,N(CCC#N)(CC)CC,nr2,25,?C
CN(C)CCC#N,1-cyano-2-dimethylaminoethane,7,Log unit,N(CCC#N)(C)C,nr2,25,?C
CCN(CC)C#N,N-cyano-N-ethylaminoethane,-2,Log unit,N(C#N)(CC)CC,nr2,25,?C
CC(C)NCCC#N,1-cyano-2-isopropylaminoethane,8,Log unit,N(CCC#N)C(C)C,nr2,25,?C
CCN(CC)CC#N,N-cyanomethyl-N-ethylaminoethane,4.525,Log unit,N(CC#N)(CC)CC,nr2,25,?C
NCCN,"1,2-diamino-ethane",9.76,Log unit,NCCN,nr2,25,?C
NCC[NH3+],"1,2-diamino-ethane",7.1,Log unit,NCC[NH3+],nr2,25,?C
CCN(CC)CC,Diethylaminoethane,10.6,Log unit,N(CC)(CC)CC,nr2,25,?C
CCN(CC)CCOCC[NH+](CC)CC,1-diethylamino-2-diethylaminoethoxyethane,8.6,Log unit,[NH+](CCOCCN(CC)CC)(CC)CC,nr2,25,?C
CCN(CC)CCOCC[NH+](C)C,1-diethylamino-2-dimethylaminoethoxyethane,8.38,Log unit,[NH+](CCOCCN(CC)CC)(C)C,nr2,25,?C
CCNCCC(=O)C(C1=CC=CC=C1)C1=CC=CC=C1,1-diethylamino-2-diphenylmethylcarbonylethane,9.55,Log unit,N(CCC(=O)C(c1ccccc1)c1ccccc1)CC,nr2,25,?C
CCN(C)CCOCC[NH+](CC)CC,1-diethylamino-2-ethylmethylaminoethoxyethane,8.76,Log unit,N(CCOCC[NH+](CC)CC)(CC)C,nr2,25,?C
CCN(CC)CCO,1-diethylamino-2-hydroxyethane,9.7785,Log unit,N(CCO)(CC)CC,nr2,25,?C
CCN(C)C,dimethylaminoethane,10.16,Log unit,N(C)(C)CC,nr2,25,?C
CN(C)CCOCCN(C)C,1-dimethylamino-2-dimethylaminoethoxyethane,9.47,Log unit,N(CCOCCN(C)C)(C)C,nr2,25,?C
CN(C)CCOCC[NH+](C)C,1-dimethylamino-2-dimethylaminoethoxyethane,8.49,Log unit,[NH+](CCOCCN(C)C)(C)C,nr2,25,?C
CN(C)CCN(C)CCN(C)C,1-dimethylamino-2-(2-dimethylamino)ethylmethylaminoethane,9,Log unit,N(C)(C)CCN(C)CCN(C)C,nr2,25,?C
CN(C)CCC(=O)C(C1=CC=CC=C1)C1=CC=CC=C1,1-dimethylamino-2-diphenylmethylcarbonylethane,8.71,Log unit,N(CCC(=O)C(c1ccccc1)c1ccccc1)(C)C,nr2,25,?C
NC1=CC=CC=C1B(O)O,o-aminophenylboric acid,9.3,Log unit,O[B](O)c1ccccc1N,,25,?C
OB(O)C1=CC=CC=C1,Phenylboric acid,8.83,Log unit,O[B](O)c1ccccc1,,25,?C
NC1=CC(=CC=C1)B(O)O,m-aminophenylboric acid,4.46,Log unit,Nc1cc([B](O)O)ccc1,,25,?C
NC1=CC(=CC=C1)B(O)O,m-aminophenylboric acid,8.8,Log unit,O[B](O)c1cccc(c1)N,,25,?C
NC1=CC=C(C=C1)B(O)O,p-aminophenylboric acid,3.71,Log unit,Nc1ccc([B](O)O)cc1,,25,?C
NC1=CC=C(C=C1)B(O)O,p-aminophenylboric acid,9.2,Log unit,O[B](O)c1ccc(N)cc1,,25,?C