Smiles,Name,pKa,pKa Unit,Ionizable center smiles,IC group,Temperature,Temperature Unit
CC1=CC(Cl)=CC=C1OCC(O)=O,[(4-chloro-2-methylphenyl)oxy]acetic acid,3.13,Log unit,OC(=O)COc1ccc(Cl)cc1C,,,-
OC(=O)CC1=CC=CC=C1,phenylacetic acid,4.31,Log unit,OC(=O)Cc1ccccc1,,,-
OC(=O)C1=CC(O)=CC=C1O,"2,5-Dihydroxybenzoic acid",2.95,Log unit,OC(=O)c1cc(O)ccc1O,,,-
CCC(O)=O,Propanoic acid,4.88,Log unit,OC(=O)CC,,,-
OC(=O)CCC1=CC=CC=C1,3-Phenylpropanoic acid,4.66,Log unit,OC(=O)CCc1ccccc1,,,-
OC(=O)COC1=CC(Cl)=CC=C1,[(3-chlorophenyl)oxy]acetic acid,3.07,Log unit,OC(=O)COc1cc(Cl)ccc1,,,-
OC(=O)CC1=CC=C(C=C1)[N+]([O-])=O,(4-Nitrophenyl)acetic acid,3.85,Log unit,OC(=O)Cc1ccc([N+](=O)[O-])cc1,,,-
OC(=O)CC1=CC(F)=CC=C1,(3-fluorophenyl)acetic acid,4.13,Log unit,OC(=O)Cc1cc(F)ccc1,,,-
OC(=O)CCCOC1=CC=C(Cl)C=C1Cl,"4-[(2,4-dichlorophenyl)oxy]butanoic acid",4.95,Log unit,OC(=O)CCCOc1c(Cl)cc(cc1)Cl,,,-
OC(=O)COC1=CC=C(F)C=C1,[(4-fluorophenyl)oxy]acetic acid,3.13,Log unit,OC(=O)COc1ccc(cc1)F,,,-
OC(=O)C(F)(F)F,Trifluoroacetic acid,0.52,Log unit,OC(=O)C(F)(F)F,,,-
COC1=C(O)C=CC(CC(O)=O)=C1,[4-hydroxy-3-(methyloxy)phenyl]acetic acid,4.41,Log unit,OC(=O)Cc1cc(OC)c(O)cc1,,,-
CC(Cl)(Cl)C(O)=O,"2,2-Dichloropropanoic acid",1.79,Log unit,OC(=O)C(Cl)(Cl)C,,,-
OC(=O)C(Cl)(Cl)Cl,TRICHLOROACETIC ACID,0.51,Log unit,OC(=O)C(Cl)(Cl)Cl,,,-
OC(=O)C(Cl)Cl,DICHLOROACETIC ACID,1.26,Log unit,OC(=O)C(Cl)Cl,,,-
CC1=CC(Cl)=CC=C1OCCCC(O)=O,4-[(4-chloro-2-methylphenyl)oxy]butanoic acid,6.2,Log unit,OC(=O)CCCOc1ccc(cc1C)Cl,,,-
CCCC(C)C(O)=O,2-Methylpentanoic acid,4.79,Log unit,OC(=O)C(CCC)C,,,-
OC(=O)CC1=CC=C(O)C(O)=C1,"(3,4-DIHYDROXYPHENYL)ACETIC ACID",4.25,Log unit,OC(=O)Cc1ccc(O)c(O)c1,,,-
CC(=O)CCC(O)=O,4-Oxopentanoic acid,4.64,Log unit,OC(=O)CCC(=O)C,,,-
OC(=O)CF,FLUOROACETIC ACID,2.59,Log unit,OC(=O)CF,,,-
OC(=O)C1=C(O)C=CC(Cl)=C1,5-Chloro-2-hydroxybenzoic acid,2.65,Log unit,OC(=O)c1c(O)ccc(Cl)c1,,,-
OC(=O)CC#N,CYANOACETIC ACID,2.45,Log unit,OC(=O)CC#N,,,-
OC(=O)C1=C(F)C=CC=C1,2-FLUOROBENZOIC ACID,3.27,Log unit,OC(=O)c1c(F)cccc1,,,-
NC(=O)NCC(O)=O,N-(AMINOCARBONYL)GLYCINE,3.89,Log unit,OC(=O)CNC(=O)N,,,-
OC(=O)C1(O)C2=CC=CC=C2C2=CC=CC=C12,9-hydroxy-9H-fluorene-9-carboxylic acid/flurenol,1.09,Log unit,OC(=O)C1(c2ccccc2c2ccccc12)O,,,-
OCCC(O)=O,3-Hydroxypropanoic acid,4.51,Log unit,OC(=O)CCO,,,-
CC(O)(C(O)=O)C1=CC=CC=C1,2-Hydroxy-2-phenylpropanoic acid,3.53,Log unit,OC(=O)C(O)(c1ccccc1)C,,,-
CC(C(O)=O)C(O)=O,methylpropanedioic acid,3.12,Log unit,OC(=O)C(C)C(=O)O,,,-
OC(=O)CCCCCC1NC(=O)CS1,"6-(4-oxo-1,3-thiazolidin-2-yl)hexanoic acid/mycobacidin",5.1,Log unit,OC(=O)CCCCCC1SCC(=O)N1,,,-
CC(=O)C1=CC=CC=C1C(O)=O,2-Acetylbenzoic acid,4.13,Log unit,OC(=O)c1ccccc1C(=O)C,,,-
OC(=O)CC1=CC=C2C=CC=CC2=C1,2-naphthalenylacetic acid,4.25,Log unit,OC(=O)Cc1ccc2ccccc2c1,,,-
CCC(C)(C)C(O)=O,"2,2-Dimethylbutanoic acid",5.03,Log unit,OC(=O)C(CC)(C)C,,,-
CC(Cl)C(O)=O,2-CHLOROPROPANOIC ACID,2.8,Log unit,OC(=O)C(Cl)C,,,-
CCC(C(O)=O)C(O)=O,ethylpropanedioic acid,2.96,Log unit,OC(=O)C(CC)C(=O)O,,,-
OC(=O)C1=C(O)C(=CC(=C1)N(=O)=O)N(=O)=O,"2-Hydroxy-3,5-dinitrobenzoic acid",0.7,Log unit,OC(=O)c1c(O)c(N(=O)=O)cc(N(=O)=O)c1,,,-
OC(=O)C1=C(C=C(C=C1)N(=O)=O)N(=O)=O,"2,4-DINITROBENZOIC ACID",1.42,Log unit,OC(=O)c1c(N(=O)=O)cc(N(=O)=O)cc1,,,-
CC1=CC=CC(C)=C1C(O)=O,"2,6-DIMETHYLBENZOIC ACID",3.35,Log unit,OC(=O)c1c(cccc1C)C,,,-
CC1=C(F)C(F)=C(C(O)=O)C(F)=C1F,"2,3,5,6-Tetrafluoro-4-methylbenzoic acid",2,Log unit,OC(=O)c1c(F)c(F)c(C)c(F)c1F,,,-
OC(=O)C1=CC=CC=C1C1=CC=CC=C1,2-Biphenylcarboxylic acid,3.46,Log unit,OC(=O)c1ccccc1c1ccccc1,,,-
COC1=CC=CC(OC)=C1C(O)=O,"2,6-bis(methyloxy)benzoic acid",3.44,Log unit,OC(=O)c1c(OC)cccc1OC,,,-
COC1=CC=CC(C(O)=O)=C1OC,"2,3-dimethyloxybenzoic acid",3.98,Log unit,OC(=O)c1cccc(OC)c1OC,,,-
CC(C)C1=CC=CC=C1C(O)=O,2-(1-methylethyl)benzoic acid,3.63,Log unit,OC(=O)c1ccccc1C(C)C,,,-
OC(=O)C1=C(Cl)C=CC(=C1)N(=O)=O,2-CHLORO-5-NITROBENZOIC ACID,2.17,Log unit,OC(=O)c1c(ccc(N(=O)=O)c1)Cl,,,-
OC(=O)C1=CC=CC(=C1Cl)N(=O)=O,2-CHLORO-3-NITROBENZOIC ACID,2.02,Log unit,OC(=O)c1c(c(N(=O)=O)ccc1)Cl,,,-
OC(=O)C1=CC=CC=C1C(=O)NC1=CC=CC=C1,2-[(phenylamino)carbonyl]benzoic acid,2.5,Log unit,OC(=O)c1ccccc1C(=O)Nc1ccccc1,,,-
OC(=O)C1=C(C=CC=C1Cl)N(=O)=O,2-Chloro-6-nitrobenzoic acid,1.34,Log unit,OC(=O)c1c(Cl)cccc1N(=O)=O,,,-
NC(=O)CNC1=CC=CC=C1C(O)=O,2-[(2-Amino-2-oxoethyl)amino]benzoic acid,4.2,Log unit,OC(=O)c1ccccc1NCC(=O)N,,,-
CC1=CC=CC(Cl)=C1C(O)=O,2-Chloro-6-methylbenzoic acid,2.75,Log unit,OC(=O)c1c(Cl)cccc1C,,,-
O[C@@H]1C[C@](O)(C[C@@H](OC(=O)\C=C\C2=CC(O)=C(O)C=C2)[C@@H]1O)C(O)=O,"3-{[(2E)-3-(3,4-dihydroxyphenyl)-2-propenoyl]oxy}-1,4,5-trihydroxycyclohexanecarboxylic acid/chlorogenic acid",2.66,Log unit,OC(=O)C1(O)CC(OC(=O)C=Cc2cc(O)c(O)cc2)C(O)C(O)C1,,,-
OC[C@@H](O)C(O)=O,"2,3-dihydroxypropanoic acid",3.55,Log unit,OC(=O)C(O)CO,,,-
CC[C@@H](C)C(O)=O,2-Methylbutanoic acid,4.81,Log unit,OC(=O)C(CC)C,,,-
C[C@@H](O)CC(O)=O,3-hydroxybutanoic acid,4.41,Log unit,OC(=O)CC(O)C,,,-
C[C@H](OC1=CC(Cl)=C(Cl)C=C1Cl)C(O)=O,"2-[(2,4,5-trichlorophenyl)oxy]propanoic acid",2.84,Log unit,OC(=O)C(Oc1cc(c(Cl)cc1Cl)Cl)C,,,-
C[C@H](OC1=C(Cl)C=C(Cl)C=C1)C(O)=O,"2-[(2,4-dichlorophenyl)oxy]propanoic acid",3.1,Log unit,OC(=O)C(Oc1c(Cl)cc(cc1)Cl)C,,,-
C[C@]12[C@@H]3[C@@H](C(O)=O)[C@]45CC(=C)[C@@](O)(C4)CC[C@@H]5[C@@]3(OC1=O)C=C[C@H]2O,gibberellic acid,4,Log unit,OC(=O)C1C23C(C45OC(=O)C(C14)(C(C=C5)O)C)CCC(O)(C2)C(=C)C3,,,-
OC(=O)C1=CC=C(C=C1)C#N,4-Cyanobenzoic acid,3.55,Log unit,OC(=O)c1ccc(C#N)cc1,,,-
OC(=O)C1=CC(=CC=C1)N(=O)=O,3-nitrobenzoic acid,3.46,Log unit,OC(=O)c1cc(N(=O)=O)ccc1,,,-
CS(=O)(=O)C1=CC=C(C=C1)C(O)=O,4-(Methylsulfonyl)benzoic acid,3.64,Log unit,OC(=O)c1ccc(S(=O)(=O)C)cc1,,,-
NC1=CC=C(C=C1)C(O)=O,4-Aminobenzoic acid,4.85,Log unit,OC(=O)c1ccc(cc1)N,,,-
OC(=O)C1=CC=C(F)C=C1,4-Fluorobenzoic Acid,4.14,Log unit,OC(=O)c1ccc(F)cc1,,,-
CC(=O)OC1=CC=CC=C1C(O)=O,2-(Acetyloxy)benzoic acid,3.49,Log unit,OC(=O)c1c(OC(=O)C)cccc1,,,-
CCCN(CCC)S(=O)(=O)C1=CC=C(C=C1)C(O)=O,4-[(dipropylamino)sulfonyl]benzoic acid/probenecid,3.4,Log unit,OC(=O)c1ccc(S(=O)(=O)N(CCC)CCC)cc1,,,-
OC(=O)C1=CC=C(O)C=C1,4-Hydroxybenzoic Acid,4.54,Log unit,OC(=O)c1ccc(O)cc1,,,-
C1CNCCN1,piperazine,5.333,Log unit,N1CCNCC1,,,-
CC1=CC(=CC=C1)C(O)=O,3-Methylbenzoic acid,4.27,Log unit,OC(=O)c1cc(C)ccc1,,,-
OC(=O)C1=CC(=CC=C1)C#N,3-Cyanobenzoic acid,3.6,Log unit,OC(=O)c1cc(C#N)ccc1,,,-
NC1=C(N)C=C(C=C1)C(O)=O,"3,4-Diaminobenzoic acid",3.49,Log unit,Nc1cc(C(=O)O)ccc1N,,,-
NC1=C(Cl)C(=CC(Cl)=C1)C(O)=O,"3-Amino-2,5-dichlorobenzoic acid",3.4,Log unit,OC(=O)c1c(Cl)c(N)cc(Cl)c1,,,-
CC1=C(C)C(NC2=CC=CC=C2C(O)=O)=CC=C1,"2-[(2,3-dimethylphenyl)amino]benzoic acid",4.2,Log unit,OC(=O)c1c(Nc2c(c(C)ccc2)C)cccc1,,,-
OC(=O)C1=C(O)C=CC(Br)=C1,5-Bromo-2-hydroxybenzoic acid,2.66,Log unit,OC(=O)c1cc(Br)ccc1O,,,-
OC(=O)C1=CC=CC=C1Cl,2-Chlorobenzoic Acid,2.89,Log unit,OC(=O)c1ccccc1Cl,,,-
OC(=O)CCC(O)=O,succinic acid,4.207,Log unit,OC(=O)CCC(=O)O,,,-
OC(=O)C1=CC(O)=C(O)C(O)=C1,"3,4,5-Trihydroxybenzoic acid",4.21,Log unit,OC(=O)c1cc(O)c(O)c(O)c1,,,-
CC1=CC=C(C=C1)C(O)=O,4-Methylbenzoic acid,4.37,Log unit,OC(=O)c1ccc(C)cc1,,,-
OC(=O)C1=CC=CC(Cl)=C1,3-Chlorobenzoic Acid,2.81,Log unit,OC(=O)c1cc(Cl)ccc1,,,-
CCN(CC)CCOC(=O)C1=CC=C(N)C=C1,procaine,2.29,Log unit,Nc1ccc(cc1)C(=O)OCCN(CC)CC,,,-
OC(=O)C1=CC(F)=CC=C1,3-FLUOROBENZOIC ACID,3.86,Log unit,OC(=O)c1cc(F)ccc1,,,-
[H]OC1=C(C([H])=O)C(=C([H])N=C1C([H])([H])[H])C([H])([H])OP(=O)(O[H])O[H],PYRIDOXAL-5-PHOSPHATE,4.14,Log unit,n1cc(c(C=O)c(c1C)O)COP(=O)(O)O,,,-
CC1=C(O)C(CN)=C(CO)C=N1,pyridoxamine,10.38,Log unit,NCc1c(cnc(c1O)C)CO,,,-
OC(=O)C1=CC=C(C=C1)N(=O)=O,4-nitrobenzoic acid,3.44,Log unit,OC(=O)c1ccc(N(=O)=O)cc1,,,-
[H]OC(=O)[C@@]([H])(N([H])[H])C([H])([H])C1=C([H])C([H])=C(O[H])C([H])=C1[H],tyrosine,2.06,Log unit,OC(=O)C(Cc1ccc(cc1)O)N,,,-
OC(=O)C1=C(O)C=CC(=C1)[N+]([O-])=O,2-Hydroxy-5-nitrobenzoic acid,2.12,Log unit,OC(=O)c1cc([N+](=O)[O-])ccc1O,,,-
N[C@@H](CC1=CNC2=C1C=CC=C2)C(O)=O,Tryptophan,2.36,Log unit,OC(=O)C(Cc1c2ccccc2[nH]c1)N,,,-
O=C1C[C@@H]2OCC=C3CN4CC[C@@]56[C@@H]4C[C@@H]3[C@@H]2[C@@H]5N1C1=CC=CC=C61,strychnine,8.26,Log unit,N12C3C4(C5N(C(=O)CC6C5C(C3)C(=CCO6)C1)c1c4cccc1)CC2,,,-
CC(=O)NC1=C(C=CC=C1)C(O)=O,2-(Acetylamino)benzoic acid,3.4,Log unit,OC(=O)c1c(NC(=O)C)cccc1,,,-
NC1=CC=CC=C1C(O)=O,2-aminobenzoic acid,4.95,Log unit,OC(=O)c1c(N)cccc1,,,-
OC(=O)C1=CC=C(OC2=CC=CC=C2)C=C1,4-(phenyloxy)benzoic acid,4.52,Log unit,OC(=O)c1ccc(cc1)Oc1ccccc1,,,-
CC(=O)NS(=O)(=O)C1=CC=C(N)C=C1,Sulfacetamide,1.76,Log unit,Nc1ccc(cc1)S(=O)(=O)NC(=O)C,,,-
OC(=O)C1=CC=C(Br)C=C1,4-Bromobenzoic Acid,4,Log unit,OC(=O)c1ccc(Br)cc1,,,-
OC(=O)C1=C(O)C=C(O)C=C1,"2,4-Dihydroxybenzoic Acid",3.11,Log unit,OC(=O)c1ccc(O)cc1O,,,-
OC(=O)C1=CC(Br)=CC=C1,3-Bromobenzoic Acid,3.81,Log unit,OC(=O)c1cc(Br)ccc1,,,-
COC1=CC(=CC=C1O)C(O)=O,4-hydroxy-3-(methyloxy)benzoic acid,4.51,Log unit,OC(=O)c1cc(c(O)cc1)OC,,,-
OC(=O)C1=CC=CC=C1,Benzoic acid,4.19,Log unit,OC(=O)c1ccccc1,,,-
NC1=CC(O)=C(C=C1)C(O)=O,4-Amino-2-hydroxybenzoic acid,3.66,Log unit,OC(=O)c1ccc(N)cc1O,,,-
NC1=CC(=CC=C1)C(O)=O,3-Aminobenzoic acid,4.74,Log unit,OC(=O)c1cc(N)ccc1,,,-
COC1=CC=CC(=C1)C(O)=O,3-(methyloxy)benzoic acid,4.09,Log unit,OC(=O)c1cc(OC)ccc1,,,-
OC(=O)C1=CC=C(Cl)C=C1,4-Chlorobenzoic Acid,3.98,Log unit,OC(=O)c1ccc(Cl)cc1,,,-
CC(C)(C)NC[C@@H](O)C1=CC(O)=CC(O)=C1,Terbutaline,8.65,Log unit,Oc1cc(cc(c1)O)C(CNC(C)(C)C)O,,,-
OC(=O)C1=CC=CC=C1O,2-Hydroxybenzoic acid,2.97,Log unit,OC(=O)c1ccccc1O,,,-
CC(C)NC[C@@H](O)C1=CC=C(NS(C)(=O)=O)C=C1,Sotalol,8.29,Log unit,N(CC(c1ccc(cc1)NS(=O)(=O)C)O)C(C)C,,,-
COC1=CC=C(C=C1)C(O)=O,4-(methyloxy)benzoic acid,4.47,Log unit,OC(=O)c1ccc(OC)cc1,,,-
OC(=O)C1=C(NC2=CC=CC=C2)C=CC=C1,2-(Phenylamino)benzoic acid,3.99,Log unit,OC(=O)c1c(cccc1)Nc1ccccc1,,,-
CC1=CC=CC=C1C(O)=O,2-Methylbenzoic acid,3.98,Log unit,OC(=O)c1ccccc1C,,,-
OC(=O)C1=C(Cl)C=CC=C1Cl,"2,6-DICHLOROBENZOIC ACID",1.59,Log unit,OC(=O)c1c(Cl)cccc1Cl,,,-
OC(=O)C1=C(Cl)C=CC(Cl)=C1Cl,"2,3,6-TRICHLOROBENZOIC ACID",1.5,Log unit,OC(=O)c1c(c(Cl)ccc1Cl)Cl,,,-
OC(=O)C1=CC(Cl)=CC=C1Cl,"2,5-DICHLOROBENZOIC ACID",2.47,Log unit,OC(=O)c1c(ccc(c1)Cl)Cl,,,-
OC(=O)C1=CC=C(Cl)C=C1Cl,"2,4-DICHLOROBENZOIC ACID",2.68,Log unit,OC(=O)c1c(cc(cc1)Cl)Cl,,,-
CC1=CC=C(C(O)=O)C(O)=C1,2-Hydroxy-4-methylbenzoic acid,3.4,Log unit,OC(=O)c1c(cc(cc1)C)O,,,-
OC(=O)C1=CC(Cl)=CC(Cl)=C1,"3,5-DICHLOROBENZOIC ACID",3.54,Log unit,OC(=O)c1cc(Cl)cc(c1)Cl,,,-
OC(=O)C1=CC=C(Cl)C(Cl)=C1,"3,4-DICHLOROBENZOIC ACID",3.64,Log unit,OC(=O)c1cc(Cl)c(cc1)Cl,,,-
CC1=NC=C(CO)C(C=O)=C1O,PYRIDOXAL,4.215,Log unit,n1cc(CO)c(c(c1C)O)C=O,,,-
CC1=CC=CC(C(O)=O)=C1O,2-Hydroxy-3-methylbenzoic acid,2.95,Log unit,OC(=O)c1c(O)c(ccc1)C,,,-
OC(=O)C1=C(Br)C=CC=C1,2-BROMOBENZOIC ACID,2.88,Log unit,OC(=O)c1c(cccc1)Br,,,-
CC1=CC=C(O)C(=C1)C(O)=O,2-HYDROXY-5-METHYLBENZOIC ACID,3.15,Log unit,OC(=O)c1c(ccc(C)c1)O,,,-
COC1=CC(OC)=C(C=C1)C(O)=O,"2,4-dimethyloxybenzoic acid",4.36,Log unit,OC(=O)c1c(OC)cc(OC)cc1,,,-
OC(=O)C1=C(O)C=C2C=CC=CC2=C1,3-HYDROXY-2-NAPHTHALENECARBOXYLIC ACID,2.79,Log unit,OC(=O)c1c(O)cc2c(cccc2)c1,,,-
COC1=CC=C(C=C1OC)C(O)=O,"3,4-DIMETHOXYBENZOIC ACID",4.36,Log unit,OC(=O)c1ccc(OC)c(OC)c1,,,-
OC(=O)C1=CC=C2C=CC=CC2=C1,2-Naphthalenecarboxylic acid,4.17,Log unit,OC(=O)c1ccc2c(cccc2)c1,,,-
CC(C)(C)C1=CC=C(C=C1)C(O)=O,"4-(1,1-dimethylethyl)benzoic acid",4.4,Log unit,OC(=O)c1ccc(cc1)C(C)(C)C,,,-
OC(=O)C1=CC(O)=CC(O)=C1,"3,5-DIHYDROXYBENZOIC ACID",4.04,Log unit,OC(=O)c1cc(O)cc(O)c1,,,-
OC(=O)C1=CC(=CC(=C1)N(=O)=O)N(=O)=O,"3,5-DINITROBENZOIC ACID",2.82,Log unit,OC(=O)c1cc(N(=O)=O)cc(N(=O)=O)c1,,,-
OC(=O)C1=CC=C(O)C(O)=C1,"3,4-DIHYDROXYBENZOIC ACID",4.48,Log unit,OC(=O)c1ccc(O)c(O)c1,,,-
OC(=O)C1=C(Cl)C=C(C=C1)N(=O)=O,2-CHLORO-4-NITROBENZOIC ACID,2.14,Log unit,OC(=O)c1c(cc(N(=O)=O)cc1)Cl,,,-
OC(=O)C1=C(C=C(C=C1N(=O)=O)N(=O)=O)N(=O)=O,"2,4,6-TRINITROBENZOIC ACID",0.65,Log unit,OC(=O)c1c(cc(cc1N(=O)=O)N(=O)=O)N(=O)=O,,,-
OC(=O)C1=CC=CC(O)=C1O,"2,3-DIHYDROXYBENZOIC ACID",2.91,Log unit,OC(=O)c1cccc(O)c1O,,,-
OC(=O)C1=CC=C(C(=C1)N(=O)=O)N(=O)=O,"3,4-DINITROBENZOIC ACID",2.82,Log unit,OC(=O)c1ccc(N(=O)=O)c(N(=O)=O)c1,,,-
COC1=CC(=CC(OC)=C1O)C(O)=O,"4-hydroxy-3,5-bis(methyloxy)benzoic acid",4.34,Log unit,OC(=O)c1cc(OC)c(O)c(OC)c1,,,-
CC(C)C1=CC=C(C=C1)C(O)=O,4-(1-Methylethyl)benzoic acid,4.35,Log unit,OC(=O)c1ccc(C(C)C)cc1,,,-
CC(=O)C1=CC=C(C=C1)C(O)=O,4-ACETYLBENZOIC ACID,3.7,Log unit,OC(=O)c1ccc(C(=O)C)cc1,,,-
OC(=O)C1=CC(C=O)=CC=C1,3-FORMYLBENZOIC ACID,3.84,Log unit,OC(=O)c1cccc(C=O)c1,,,-
CCC1=CC=C(C=C1)C(O)=O,4-ETHYLBENZOIC ACID,4.35,Log unit,OC(=O)c1ccc(CC)cc1,,,-
[OH:1][C:2](=[O:3])[C:4]1=[CH:11][CH:10]=[C:7]([CH:8]=[O:9])[CH:6]=[CH:5]1,4-FORMYLBENZOIC ACID,3.77,Log unit,OC(=O)c1ccc(C=O)cc1,,,-
CCOC1=CC=C(C=C1)C(O)=O,4-(ethyloxy)benzoic acid,4.45,Log unit,OC(=O)c1ccc(OCC)cc1,,,-
COC1=CC(=CC(OC)=C1)C(O)=O,"3,5-DIMETHOXYBENZOIC ACID",3.97,Log unit,OC(=O)c1cc(OC)cc(OC)c1,,,-
OC(=O)C1=CC=CC(OC2=CC=CC=C2)=C1,3-(phenyloxy)benzoic acid,3.92,Log unit,OC(=O)c1cccc(Oc2ccccc2)c1,,,-
CCCOC1=CC=C(C=C1)C(O)=O,4-(propyloxy)benzoic acid,4.46,Log unit,OC(=O)c1ccc(OCCC)cc1,,,-
COC1=CC2=C(C=CN=C2C=C1)[C@@H](O)[C@@H]1C[C@H]2CCN1C[C@@H]2C=C,Quinine,4.33,Log unit,n1ccc(C(C2CC3C(CN2CC3)C=C)O)c2c1ccc(c2)OC,,,-
O[C@H]([C@@H](O)C(O)=O)C(O)=O,tartaric acid,3.033,Log unit,OC(=O)C(C(C(=O)O)O)O,,,-
CC(=O)C[C@H](C1=CC=CC=C1)C1=C(O)C2=C(OC1=O)C=CC=C2,Warfarin,5.02,Log unit,Oc1c2ccccc2oc(=O)c1C(c1ccccc1)CC(=O)C,,,-
CNC[C@@H](O)C1=CC=C(O)C=C1,Synephrine,9.6,Log unit,Oc1ccc(cc1)C(CNC)O,,,-
NC1=NC(SC2CCCCC2)=NC2=C1N=CN2C1OC(CO)C(O)C1O,4-amino-2-(ethyloxy)benzoic acid,5.09,Log unit,n1cn(C2OC(C(O)C2O)CO)c2nc(SC3CCCCC3)nc(N)c12,,,-
[H][C@@]12OC3=C(O)C=CC4=C3[C@@]11CCN(C)[C@]([H])(C4)[C@]1([H])C=C[C@@H]2O,Morphine,8.18,Log unit,N1(C2C3C=CC(C4C3(c3c(c(ccc3C2)O)O4)CC1)O)C,,,-
C[C@@H]1CCC2=CC(F)=CC3=C2[N]1=CC(C(O)=O)=[C]3=O,Flumequine,6.38,Log unit,OC(=O)c1cn2c3c(c1=O)cc(cc3CCC2C)F,,,-
C1CNCCN1,piperazine,9.731,Log unit,N1CCNCC1,,,-
CC(C)CC1=CC=C(C=C1)[C@@H](C)C(O)=O,Ibuprofen,4.44,Log unit,OC(=O)C(c1ccc(CC(C)C)cc1)C,,,-
NS(=O)(=O)C1=CC2=C(NCNS2(=O)=O)C=C1Cl,Hydrochlorothiazide,8.78,Log unit,NS(=O)(=O)c1c(cc2c(c1)S(=O)(=O)NCN2)Cl,,,-
OC(=O)CCC(O)=O,succinic acid,5.638,Log unit,OC(=O)CCC(=O)O,,,-
[O-][N+](=O)C1=CC=C2NC(=O)CN=C(C3=CC=CC=C3)C2=C1,Nitrazepam,2.92,Log unit,N1=C(c2cc(ccc2NC(=O)C1)[N+](=O)[O-])c1ccccc1,,,-
OC(=O)CC(O)(CC(O)=O)C(O)=O,citric acid,3.128,Log unit,OC(=O)C(CC(=O)O)(CC(=O)O)O,,,-
CCN(CC)CCOC(=O)C1=CC=C(N)C=C1,procaine,9.04,Log unit,N(CCOC(=O)c1ccc(cc1)N)(CC)CC,,,-
[H]OC1=C(C([H])=O)C(=C([H])N=C1C([H])([H])[H])C([H])([H])OP(=O)(O[H])O[H],PYRIDOXAL-5-PHOSPHATE,6.2,Log unit,OP(=O)(OCc1cnc(c(c1C=O)O)C)O,,,-
CC1=C(O)C(CN)=C(CO)C=N1,pyridoxamine,8.11,Log unit,Oc1c(c(cnc1C)CO)CN,,,-
NCCC1=CNC=N1,Histamine,5.784,Log unit,n1c(c[nH]c1)CCN,,,-
[O-]C(=O)CC([O-])=O,malonic acid,2.85,Log unit,OC(=O)CC(=O)O,,,-
[H][C@@]12C[C@@]3([H])C(=C(O)[C@]1(O)C(=O)C(C(N)=O)=C(O)[C@H]2N(C)C)C(=O)C1=C(O)C=CC=C1[C@@]3(C)O,tetracycline,3.3,Log unit,OC1=C(C(=O)C2(C(=C3C(=O)c4c(cccc4C(C3CC2C1N(C)C)(C)O)O)O)O)C(=O)N,,,-
[H][C@@]12OC3=C(O)C=CC4=C3[C@@]11CCN[C@]([H])(C4)[C@]1([H])C=C[C@@H]2O,Normorphine,8.66,Log unit,N1C2C3C=CC(C4C3(c3c(c(ccc3C2)O)O4)CC1)O,,,-
[H][C@@]12OC3=C(OC)C=CC4=C3[C@@]11CCN(C)[C@]([H])(C4)[C@]1([H])C=C[C@@H]2O,Codeine,8.22,Log unit,N1(C2C3C4(c5c(c(OC)ccc5C2)OC4C(O)C=C3)CC1)C,,,-
[H]OC(=O)[C@@]([H])(N([H])[H])C([H])([H])C1=C([H])C([H])=C(O[H])C([H])=C1[H],tyrosine,9.145,Log unit,NC(Cc1ccc(cc1)O)C(=O)O,,,-
OC(=O)C1=CC=CN=C1,nicotinic acid,2.05,Log unit,OC(=O)c1cnccc1,,,-
N[C@@H](CC1=CNC2=C1C=CC=C2)C(O)=O,Tryptophan,9.42,Log unit,NC(Cc1c2ccccc2[nH]c1)C(=O)O,,,-
CN(C)CCN1C2=CC=CC=C2N(C)C2=CC=CC=C2C1=O,Dibenzepine,3.451,Log unit,N1(C)c2ccccc2C(=O)N(CCN(C)C)c2ccccc21,,,-
[H]OC(=O)C([H])([H])C([H])([H])[C@@]([H])(C([H])([H])[H])[C@@]1([H])C([H])([H])C([H])([H])[C@@]2([H])[C@]3([H])[C@]([H])(O[H])C([H])([H])[C@]4([H])C([H])([H])[C@]([H])(O[H])C([H])([H])C([H])([H])[C@]4(C([H])([H])[H])[C@@]3([H])C([H])([H])C([H])([H])[C@]12C([H])([H])[H],chenodeoxycholic acid,5.03,Log unit,OC(=O)CCC(C1C2(C(C3C(C4(C(CC(CC4)O)CC3O)C)CC2)CC1)C)C,,,-
C[C@H](CCC1=CC=CC=C1)NC[C@@H](O)C1=CC(C(N)=O)=C(O)C=C1,Labetalol,7.41,Log unit,Oc1ccc(cc1C(=O)N)C(CNC(CCc1ccccc1)C)O,,,-
OC(=O)C1=CC=CC=N1,Picolinic Acid,0.99,Log unit,OC(=O)c1ncccc1,,,-
CC(=O)NS(=O)(=O)C1=CC=C(N)C=C1,Sulfacetamide,5.26,Log unit,N(S(=O)(=O)c1ccc(cc1)N)C(=O)C,,,-
OC(=O)C1=C(C=CC=C1)C(O)=O,phthalic acid,2.95,Log unit,OC(=O)c1c(cccc1)C(=O)O,,,-
CC(C)NC[C@@H](O)C1=CC=C(NS(C)(=O)=O)C=C1,Sotalol,9.72,Log unit,N(S(=O)(=O)C)c1ccc(C(O)CNC(C)C)cc1,,,-
NS(=O)(=O)c1cc(C(O)=O)c(NCc2ccco2)cc1Cl,Furosemide,3.65,Log unit,OC(=O)c1cc(S(=O)(=O)N)c(cc1NCc1occc1)Cl,,,-
OC(=O)\C=C/C([O-])=O,maleic acid,1.93,Log unit,OC(=O)C=CC(=O)O,,,-
OCCN1CCN(CC\C=C2\C3=CC=CC=C3SC3=C2C=C(Cl)C=C3)CC1,Clopenthixol,3.443,Log unit,N1(CCN(CCC=C2c3c(Sc4c2cc(cc4)Cl)cccc3)CC1)CCO,,,-
CN(C)[C@H]1[C@@H]2C[C@H]3C(=C(O)[C@]2(O)C(=O)C(C(N)=O)=C1O)C(=O)C1=C(O)C=CC(Cl)=C1[C@@]3(C)O,chlortetracycline,3.285,Log unit,OC1=C(C(=O)C2(C(=C3C(=O)c4c(C(C3CC2C1N(C)C)(O)C)c(ccc4O)Cl)O)O)C(=O)N,,,-
COC1=CC(=CC(OC)=C1OC)C(=O)OCCCN(C)CCN(C)CCCOC(=O)C1=CC(OC)=C(OC)C(OC)=C1,Hexobendine,4.52,Log unit,N(CCN(CCCOC(=O)c1cc(c(OC)c(c1)OC)OC)C)(C)CCCOC(=O)c1cc(c(c(c1)OC)OC)OC,,,-
OC(=O)C1=CC=NC=C1,iso-Nicotinic acid,1.77,Log unit,n1ccc(cc1)C(=O)O,,,-
CC1=NC=C(CO)C(C=O)=C1O,PYRIDOXAL,8.68,Log unit,Oc1c(c(cnc1C)CO)C=O,,,-
CN1CCN(CC1)C(C1=CC=CC=C1)C1=CC=CC=C1,CYCLIZINE,2.16,Log unit,N1(CCN(C(c2ccccc2)c2ccccc2)CC1)C,,,-
COC1=C2O[C@H]3[C@@H](O)C=C[C@H]4[C@H]5CC(C=C1)=C2[C@@]34CCN5,Norcodeine,9.23,Log unit,N1C2C3C=CC(C4C3(c3c(c(ccc3C2)OC)O4)CC1)O,,,-
COC1=CC2=C(C=CN=C2C=C1)[C@@H](O)[C@@H]1C[C@H]2CCN1C[C@@H]2C=C,Quinine,8.56,Log unit,N12C(C(c3ccnc4c3cc(OC)cc4)O)CC(C(C1)C=C)CC2,,,-
O[C@@H](CC(O)=O)C(O)=O,malic acid,3.459,Log unit,OC(=O)C(CC(=O)O)O,,,-
OC[C@@H](O)[C@@H](O)[C@H](O)[C@@H](O)C(O)=O,Gluconic acid,3.62,Log unit,OC(=O)C(C(C(C(O)CO)O)O)O,,,-
CC(=O)O[C@H](CC([O-])=O)C[N+](C)(C)C,Deccyl carnitine,3.6,Log unit,OC(=O)CC(OC(=O)C)C[N+](C)(C)C,,,-
OC(O)=O,Carbonic acid,6.352,Log unit,OC(=O)O,,,-
O[C@H]([C@@H](O)C(O)=O)C(O)=O,tartaric acid,4.366,Log unit,OC(=O)C(O)C(C(=O)O)O,,,-
NS(=O)(=O)C1=C(Cl)C=CC(=C1)[C@@]1(O)NC(=O)C2=C1C=CC=C2,Chlorthalidone,9.355,Log unit,NS(=O)(=O)c1cc(C2(NC(=O)c3c2cccc3)O)ccc1Cl,,,-
CC(C)NC[C@@H](O)C1=CC(O)=C(O)C=C1,isoproterenol,8.65,Log unit,N(CC(c1ccc(c(c1)O)O)O)C(C)C,,,-
CC1(C)S[C@@H](N[C@H]1C(O)=O)[C@H](NC(=O)CC1=CC=CC=C1)C(O)=O,Benzylpenicilloic acid,5.32,Log unit,N1C(SC(C1C(=O)O)(C)C)C(NC(=O)Cc1ccccc1)C(=O)O,,,-
N[C@@H](CC1=CC=CC=C1)C(=O)N[C@H](CC1=CC=CC=C1)C(O)=O,Phe-Phe,3.2,Log unit,OC(=O)C(NC(=O)C(Cc1ccccc1)N)Cc1ccccc1,,,-
N[C@@H](CC1=CC=CC=C1)C(=O)N[C@H](CC1=CC=CC=C1)C(=O)N[C@H](CC1=CC=CC=C1)C(O)=O,Phe-Phe-Phe,3.37,Log unit,OC(=O)C(NC(=O)C(NC(=O)C(Cc1ccccc1)N)Cc1ccccc1)Cc1ccccc1,,,-
CCOC(=O)[C@H](CCC1=CC=CC=C1)N[C@@H](C)C(=O)N1CCC[C@@H]1C(O)=O,enalapril,2.975,Log unit,OC(=O)C1N(C(=O)C(NC(C(=O)OCC)CCc2ccccc2)C)CCC1,,,-
CSCC[C@H](NC(=O)[C@@H](CC1=CC=CC=C1)NC(=O)CNC(=O)CNC(=O)[C@H](N)CC1=CC=C(O)C=C1)C(O)=O,Enkephalin,3.68,Log unit,OC(=O)C(NC(=O)C(NC(=O)CNC(=O)CNC(=O)C(Cc1ccc(O)cc1)N)Cc1ccccc1)CCSC,,,-
N[C@H]1[C@H](O)O[C@H](COP(O)(O)=O)[C@@H](O)[C@@H]1O,Glucosamine-6-phosphate,6.1,Log unit,OP(=O)(OCC1OC(C(C(C1O)O)N)O)O,,,-
NCCC1=C(I)NC=N1,"Histamine, monoiodo",4.06,Log unit,n1c(c([nH]c1)I)CCN,,,-
NCCC1=C(I)NC(I)=N1,"Histamine, diiodo",2.31,Log unit,n1c(c([nH]c1I)I)CCN,,,-
OC[C@H]1O[C@H](C[C@H]1O)N1C=NC2=C1N=CNC[C@H]2O,Pentostatin,1.67,Log unit,n1cn(C2CC(C(O2)CO)O)c2c1C(CNC=N2)O,,,-
CCCC(=O)O[C@H](CC(O)=O)C[N+](C)(C)C,Deccyl carnitine,3.56,Log unit,OC(=O)CC(OC(=O)CCC)C[N+](C)(C)C,,,-
CCCCCCCC(=O)O[C@H](CC(O)=O)C[N+](C)(C)C,Deccyl carnitine,3.6,Log unit,OC(=O)CC(OC(=O)CCCCCCC)C[N+](C)(C)C,,,-
CCCCCCCCCC(=O)O[C@H](CC(O)=O)C[N+](C)(C)C,Deccyl carnitine,3.65,Log unit,OC(=O)CC(OC(=O)CCCCCCCCC)C[N+](C)(C)C,,,-
CN[C@@H](C)CC1=CC=CC=C1OC,Methoxyphenamine,10.45,Log unit,N(C(Cc1c(cccc1)OC)C)C,,,-
CNC[C@@H](C)C1=CC=CC=C1,Phenylpropylmethylamine,10.07,Log unit,N(CC(c1ccccc1)C)C,,,-
O[C@@H](CNC1=NC=CC=C1)C1=CC=CC=C1,Phenyramidol,6.488,Log unit,n1ccccc1NCC(c1ccccc1)O,,,-