Smiles,Name,pKa,pKa Unit,Ionizable center smiles,IC group,Temperature,Temperature Unit
OC(=O)C1CCC1C([O-])=O,"trans-Cyclobutane-1,2-dicarboxylic acid",5.2,Log unit,OC(=O)C1CCC1C(=O)[O-],,25,?C
OC(=O)C1CC(C1)C(O)=O,"trans-cyclobutane-1,3-dicarboxylic acid",4.4,Log unit,OC(=O)C1CC(C(=O)O)C1,,25,?C
OC(=O)C1CC(C1)C([O-])=O,"trans-cyclobutane-1,3-dicarboxylic acid",4.8,Log unit,OC(=O)C1CC(C(=O)[O-])C1,,25,?C
OC(=O)C1(CCCC1)C(O)=O,"CYCLOPENTANE-1,1-DICARBOXYLIC ACID",3.53,Log unit,OC(=O)C1(CCCC1)C(=O)O,,25,?C
OC(=O)C1CCCC1C(O)=O,"trans-cyclopentane-1,2-dicarboxylic acid",4.3,Log unit,OC(=O)C1CCCC1C(=O)O,,25,?C
OC(=O)C1CCCC1C([O-])=O,"trans-cyclopentane-1,2-dicarboxylic acid",5.5,Log unit,OC(=O)C1CCCC1C(=O)[O-],,25,?C
OC(=O)C1CCC(C1)C(O)=O,"trans-cyclopentane-1,3-dicarboxylic acid",4.66,Log unit,OC(=O)C1CCC(C1)C(=O)O,,25,?C
OC(=O)C1CCC(C1)C([O-])=O,"trans-cyclopentane-1,3-dicarboxylic acid",5.1,Log unit,OC(=O)C1CC(C(=O)[O-])CC1,,25,?C
OC(=O)CC1CCCC1C(O)=O,trans-cyclopentane-1-carboxylic acid-2-acetic acid,4.7,Log unit,OC(=O)C1CCCC1CC(=O)O,,25,?C
OC(=O)CC1(CC(O)=O)CCCC1,"cyclopentyl-1,1-diacetic acid",4.4,Log unit,OC(=O)CC1(CCCC1)CC(=O)O,,25,?C
OC(=O)CC1CCCC1CC(O)=O,"trans-cyclopentyl-1,2-diacetic acid",4.73,Log unit,OC(=O)CC1CCCC1CC(=O)O,,25,?C
CC1CCC(CC(O)=O)(CC(O)=O)C1,"3-METHYLCYCLOPENTYL-1,1-DIACETIC ACID",4.4,Log unit,OC(=O)CC1(CCC(C1)C)CC(=O)O,,25,?C
OC(=O)C1(CCCCC1)C(O)=O,"cyclohexane-1,1-dicarboxylic acid",3.75,Log unit,OC(=O)C1(CCCCC1)C(=O)O,,25,?C
OC(=O)C1CCCCC1C(O)=O,"trans-Cyclohexane-1,2-dicarboxylic acid",4.48,Log unit,OC(=O)C1CCCCC1C(=O)O,,25,?C
OC(=O)C1CCCCC1C([O-])=O,"trans-Cyclohexane-1,2-dicarboxylic acid",5.6,Log unit,OC(=O)C1CCCCC1C(=O)[O-],,25,?C
OC(=O)C1CCCC(C1)C(O)=O,"trans-cyclohexane-1,3-dicarboxylic acid",4.61,Log unit,OC(=O)C1CCCC(C1)C(=O)O,,25,?C
OC(=O)C1CCCC(C1)C([O-])=O,"trans-cyclohexane-1,3-dicarboxylic acid",5.4,Log unit,OC(=O)C1CCCC(C1)C(=O)[O-],,25,?C
OC(=O)C1CCC(CC1)C(O)=O,"trans-Cyclohexane-1,4-dicarboxylic acid",4.535,Log unit,OC(=O)C1CCC(C(=O)O)CC1,,25,?C
OC(=O)C1=C(CCCC1)C(O)=O,"1-Cyclohexene-1,2-dicarboxylic acid",4.05,Log unit,OC(=O)C1=C(C(=O)O)CCCC1,,25,?C
OC(=O)C1=C(CCCC1)C([O-])=O,"1-Cyclohexene-1,2-dicarboxylic acid",5.9,Log unit,OC(=O)C1=C(C(=O)[O-])CCCC1,,25,?C
OC(=O)C1CCCC=C1C(O)=O,"1-cyclohexene-1,6-dicarboxylic acid",4.34,Log unit,OC(=O)C1=CCCCC1C(=O)O,,25,?C
OC(=O)C1CCCC=C1C([O-])=O,"1-cyclohexene-1,6-dicarboxylic acid",5.31,Log unit,OC(=O)C1CCCC=C1C(=O)[O-],,25,?C
OC(=O)C1CC=CCC1C(O)=O,"trans-cyclohexene-4-1,2-dicarboxylic acid",4.2,Log unit,OC(=O)C1CC=CCC1C(=O)O,,25,?C
OC(=O)C1CC=CCC1C([O-])=O,"trans-cyclohexene-4-1,2-dicarboxylic acid",5.8,Log unit,OC(=O)C1C(C(=O)[O-])CC=CC1,,25,?C
OC(=O)CC1(CC(O)=O)CCCCC1,"cyclohexyl-1,1-diacetic acid",3.8,Log unit,OC(=O)CC1(CCCCC1)CC(=O)O,,25,?C
OC(=O)CC1CCCCC1CC(O)=O,"trans-cyclohexyl-1,2-diacetic acid",4.68,Log unit,OC(=O)CC1CCCCC1CC(=O)O,,25,?C
CC1CCCCC1(CC(O)=O)CC(O)=O,"2-METHYLCYCLOHEXYL-1,1-DIACETIC ACID",3.83,Log unit,OC(=O)CC1(CCCCC1C)CC(=O)O,,25,?C
CC1CCCC(CC(O)=O)(CC(O)=O)C1,"3-METHYLCYCLOHEXYL-1,1-DIACETIC ACID",3.49,Log unit,OC(=O)CC1(CCCC(C1)C)CC(=O)O,,25,?C
CC1CCCC(CC(O)=O)(CC([O-])=O)C1,"3-METHYLCYCLOHEXYL-1,1-DIACETIC ACID",5.78,Log unit,OC(=O)CC1(CCCC(C1)C)CC(=O)[O-],,25,?C
CC1CCC(CC(O)=O)(CC(O)=O)CC1,"4-methylcyclohexyl-1,1-diacetic acid",3.79,Log unit,OC(=O)CC1(CCC(CC1)C)CC(=O)O,,25,?C
CC1CCC(CC(O)=O)(CC([O-])=O)CC1,"4-methylcyclohexyl-1,1-diacetic acid",5.8,Log unit,OC(=O)CC1(CCC(CC1)C)CC(=O)[O-],,25,?C
OC(=O)C1(O)CCCCCC1,cycloheptanecarboxlic acid-1-hydroxy,4.2,Log unit,OC(=O)C1(O)CCCCCC1,,25,?C
OC(=O)C1CCCCC1C1CCCCC1C(O)=O,perhydrodiphenic acid,5.2,Log unit,OC(=O)C1CCCCC1C1CCCCC1C(=O)O,,25,?C
OC(=O)C1CCCCC1C1CCCCC1C([O-])=O,perhydrodiphenic acid,5.65,Log unit,OC(=O)C1C(C2C(C(=O)[O-])CCCC2)CCCC1,,25,?C
OC(=O)C1CC2=CC=CC=C2CC1C(O)=O,"trans-tetrahydronaphthalin-2,3-dicarboxylic acid",4.3,Log unit,OC(=O)C1Cc2ccccc2CC1C(=O)O,,25,?C
OC(=O)C1CC2=CC=CC=C2CC1C([O-])=O,"trans-tetrahydronaphthalin-2,3-dicarboxylic acid",5.4,Log unit,OC(=O)C1Cc2ccccc2CC1C(=O)[O-],,25,?C
OC(=O)C1C2CCC(C2)C1C(O)=O,"trans-hexahydro-3,6-endomethylene-o-phthalic acid",4.37,Log unit,OC(=O)C1C2CC(CC2)C1C(=O)O,,25,?C
OC(=O)C1C2CCC(C2)C1C([O-])=O,"trans-hexahydro-3,6-endomethylene-o-phthalic acid",5.36,Log unit,OC(=O)C1C2CC(CC2)C1C(=O)[O-],,25,?C
OC(=O)C1C2CC(C=C2)C1C(O)=O,"trans-delta-4-tetrahydro-3,6-endomethylen-o-phthalic acid",4.36,Log unit,OC(=O)C1C2C=CC(C2)C1C(=O)O,,25,?C
OC(=O)C1C2CC(C=C2)C1C([O-])=O,"trans-delta-4-tetrahydro-3,6-endomethylen-o-phthalic acid",5.4,Log unit,OC(=O)C1C2C=CC(C1C(=O)[O-])C2,,25,?C
OC(=O)C1C2CCC(CC2)C1C(O)=O,"trans-hexahydro-3,6-endoethylene-o-phthalic acid",4.2,Log unit,OC(=O)C1C2CCC(CC2)C1C(=O)O,,25,?C
OC(=O)C1C2CCC(CC2)C1C([O-])=O,"trans-hexahydro-3,6-endoethylene-o-phthalic acid",5.85,Log unit,OC(=O)C1C2CCC(CC2)C1C(=O)[O-],,25,?C
CC1(C)C(CCC1C(O)=O)C(O)=O,"cyclobutan-1,3-dicarboxlic acid-2,2-dimethyl",4.88,Log unit,OC(=O)C1C(C)(C)C(C(=O)O)CC1,,25,?C
CC1(C)C(CCC1C([O-])=O)C(O)=O,"cyclobutan-1,3-dicarboxlic acid-2,2-dimethyl",5.19,Log unit,OC(=O)C1C(C)(C)C(C(=O)[O-])CC1,,25,?C
OC(=O)C1CCCCCCC1C(O)=O,"cyclooctan-1,2-dicarboxlic acid",4.67,Log unit,OC(=O)C1C(C(=O)O)CCCCCC1,,25,?C
OC(=O)C1CCCCCCC1C([O-])=O,"cyclooctan-1,2-dicarboxlic acid",5.76,Log unit,OC(=O)C1C(C(=O)[O-])CCCCCC1,,25,?C
CC1(C)C(CCC1(C)C(O)=O)C(O)=O,"cyclopentan-1,3-dicarboxlic acid-1,2,2-trimethyl",5.01,Log unit,OC(=O)C1(C)C(C)(C)C(C(=O)O)CC1,,25,?C
CC1(C)C(CCC1(C)C(O)=O)C([O-])=O,"cyclopentan-1,3-dicarboxlic acid-1,2,2-trimethyl",5.53,Log unit,OC(=O)C1(C)C(C)(C)C(C(=O)[O-])CC1,,25,?C
OC(=O)C1C2CCC(C=C2)C1C(O)=O,"trans-delta^4-tetrahydro-3,6-endoethylene-o-phthalic acid",4.45,Log unit,OC(=O)C1C2C=CC(CC2)C1C(=O)O,,25,?C
OC(=O)C1C2CC(C3C4CCC(C4)C23)C1C(O)=O,trans-C14H18O4-dicarboxylic acid,4.82,Log unit,OC(=O)C1C2C3C4CC(CC4)C3C(C2)C1C(=O)O,,25,?C
OC(=O)C1C2CC(C3C4CCC(C4)C23)C1C([O-])=O,trans-C14H18O4-dicarboxylic acid,5.84,Log unit,OC(=O)C1C2C3C4CC(CC4)C3C(C2)C1C(=O)[O-],,25,?C
OC(=O)CC1C2CC(C3C4CCC(C4)C23)C1C(O)=O,alpha-trans-C15H20O4-dicarboxylic acid,4.55,Log unit,OC(=O)C1C2C3C4CC(CC4)C3C(C2)C1CC(=O)O,,25,?C
OC(=O)C1CCCC(C1C(O)=O)C(O)=O,"1,2,3-cyclohexane-tricarboxylic acid",4.36,Log unit,OC(=O)C1CCCC(C1C(=O)O)C(=O)O,,25,?C
CC1(C)C(CC1C(O)=O)C(O)=O,trans-norpinic acid,3.9,Log unit,OC(=O)C1CC(C(=O)O)C1(C)C,,25,?C
CC1(C)C(CC1C([O-])=O)C(O)=O,trans-norpinic acid,4.9,Log unit,OC(=O)C1CC(C(=O)[O-])C1(C)C,,25,?C
CC1(C)C(C1C(O)=O)C(O)=O,trans-caronic acid,4.12,Log unit,OC(=O)C1C(C)(C)C1C(=O)O,,25,?C
OC(=O)CF,Monofluoroacetic acid,2.565,Log unit,OC(=O)CF,,25,?C
OC(=O)CCl,Monochloroacetic acid,2.825,Log unit,OC(=O)CCl,,25,?C
OC(=O)CBr,Monobromoacetic acid,2.895,Log unit,OC(=O)CBr,,25,?C
OC(=O)CI,Monoiodoacetic acid,3.165,Log unit,OC(=O)CI,,25,?C
OC(=O)CC#N,CYANOACETIC ACID,2.45,Log unit,OC(=O)CC#N,,25,?C
CC(S)C(O)=O,2-mercapto-1-propanoic acid,3.6,Log unit,OC(=O)C(S)C,,25,?C
CC(S)C([O-])=O,2-mercapto-1-propanoic acid,10.2,Log unit,SC(C(=O)[O-])C,,25,?C
OC(=O)C(Cl)Cl,DICHLOROACETIC ACID,1.36,Log unit,OC(=O)C(Cl)Cl,,25,?C
N1C=CC=N1,Pyrazole,2.61,Log unit,n1ccc[nH]1,,,-
C1=CN=NC=C1,pyridazine,2.33,Log unit,n1ncccc1,,,-
C1=CC=NC=C1,pyridine,5.17,Log unit,n1ccccc1,,,-
C1=CN=CN=C1,pyrimidine,1.3,Log unit,n1cnccc1,,,-
C1CCNC1,pyrrolidine,11.3,Log unit,N1CCCC1,,,-
C1=CC2=C(C=C1)N=CC=C2,Quinoline,4.8,Log unit,n1cccc2ccccc12,,,-
C1=CC2=C(C=C1)N=CC=N2,Quinoxaline,0.72,Log unit,n1ccnc2ccccc12,,,-
[H]N=C(N)SC,S-methylisothiourea,9.83,Log unit,N=C(SC)N,,,-
N[C@@H](CO)C(O)=O,SERINE2,9.21,Log unit,NC(CO)C(=O)O,,,-
CC(C)(C)N,t-Butylamine,10.69,Log unit,NC(C)(C)C,,,-
C1CNC2=C(C1)C=CC=C2,Tetrahydroquinoline,5,Log unit,N1CCCc2ccccc12,,,-
C[C@@H](O)[C@H](N)C(O)=O,THREONINE2,9.1,Log unit,NC(C(C)O)C(=O)O,,,-
C=CCN(CC=C)CC=C,TRIALLYLAMINE,8.31,Log unit,N(CC=C)(CC=C)CC=C,,,-
OCCN(CCO)CCO,Triethanolamine,7.76,Log unit,N(CCO)(CCO)CCO,,,-
CCN(CC)CC,triethylamine,10.72,Log unit,N(CC)(CC)CC,,,-
CC(C)CN(CC(C)C)CC(C)C,TRIISOBUTYLAMINE,10.42,Log unit,N(CC(C)C)(CC(C)C)CC(C)C,,,-
CN(C)C,trimethylamine,9.8,Log unit,N(C)(C)C,,,-
CCCN(CCC)CCC,tripropylamine,10.66,Log unit,N(CCC)(CCC)CCC,,,-
NC(CO)(CO)CO,Tris(Hydroxymethyl)aminomethane,8.08,Log unit,NC(CO)(CO)CO,,,-
N[C@@H](CC1=CNC2=C1C=CC=C2)C(O)=O,TRYPTOPHAN2,9.41,Log unit,NC(Cc1c[nH]c2c1cccc2)C(=O)O,,,-
N[C@@H](CC1=CC=C(O)C=C1)C(O)=O,TYROSINE2,9.21,Log unit,NC(Cc1ccc(cc1)O)C(=O)O,,,-
CC(C)[C@H](N)C(O)=O,VALINE2,9.74,Log unit,NC(C(C)C)C(=O)O,,,-
CNC=C,VINYLMETHYLAMINE,9.69,Log unit,N(C)C=C,,,-
OC=O,Formic acid,3.75,Log unit,OC=O,,25,?C
CC(O)=O,acetic acid,4.76,Log unit,OC(=O)C,,25,?C
CCC(O)=O,Propionic Acid,4.87,Log unit,OC(=O)CC,,25,?C
CCCC(O)=O,n-Butyric Acid,4.81,Log unit,OC(=O)CCC,,25,?C
CC(C)C(O)=O,Iso-butyric acid,4.62,Log unit,OC(=O)C(C)C,,25,?C
CCCCC(O)=O,Valeric acid,4.815,Log unit,OC(=O)CCCC,,25,?C
CC(C)CC(O)=O,iso-valeric acid,4.77,Log unit,OC(=O)CC(C)C,,25,?C
OC(=O)C=O,2-oxoacetic acid,3.08,Log unit,OC(=O)C=O,,25,?C
CC(C)(C)C(O)=O,trimethyl acetic acid,5.036,Log unit,OC(=O)C(C)(C)C,,25,?C
CCC(C)C(O)=O,methyl-ethyl-acetic acid,4.785,Log unit,OC(=O)C(C)CC,,25,?C
CCCCCC(O)=O,caproic acid,4.865,Log unit,OC(=O)CCCCC,,25,?C
CC(C)CCC(O)=O,iso-caproic acid,4.84,Log unit,OC(=O)CCC(C)C,,25,?C
CCCC(C)C(O)=O,methyl-n-propylacetic acid,4.79,Log unit,OC(=O)C(C)CCC,,25,?C
CCC(C)CC(O)=O,beta-methyl-beta-ethylpropionic acid,4.83,Log unit,OC(=O)CC(C)CC,,25,?C
CCC(C)(C)C(O)=O,dimethyl-ethylacetic acid,4.98,Log unit,OC(=O)C(C)(C)CC,,25,?C
CCC(CC)C(O)=O,Diethylacetic acid,4.73,Log unit,OC(=O)C(CC)CC,,25,?C
CCCCCCC(O)=O,Enanthic acid,4.87,Log unit,OC(=O)CCCCCC,,25,?C
CC(C)(C)C(C)(C)C(O)=O,triethylacetic acid,4.79,Log unit,OC(=O)C(C)(C)C(C)(C)C,,25,?C
CCCC(CC)C(O)=O,ethyl-n-propylacetic acid,4.71,Log unit,OC(=O)C(CC)CCC,,25,?C
CCCCCCCC(O)=O,caprylic acid,4.89,Log unit,OC(=O)CCCCCCC,,25,?C
CCCCCCCCC(O)=O,pelargonic acid,4.95,Log unit,OC(=O)CCCCCCCC,,25,?C
OC(=O)C(O)=O,oxalic acid,1.275,Log unit,OC(=O)C(=O)O,,25,?C
OC(=O)C([O-])=O,oxalic acid,3.5,Log unit,OC(=O)C(=O)[O-],,25,?C
OC(=O)CC(O)=O,malonic acid,3.14,Log unit,OC(=O)CC(=O)O,,25,?C
OC(=O)CC([O-])=O,malonic acid,5.4,Log unit,OC(=O)CC(=O)[O-],,25,?C
OC(=O)CCC(O)=O,succinic acid,4.5,Log unit,OC(=O)CCC(=O)O,,25,?C
OC(=O)CCC([O-])=O,succinic acid,4.9,Log unit,OC(=O)CCC(=O)[O-],,25,?C
OC(=O)CCCC(O)=O,glutaric acid,4.64,Log unit,OC(=O)CCCC(=O)O,,25,?C
OC(=O)CCCC([O-])=O,glutaric acid,4.71,Log unit,OC(=O)CCCC(=O)[O-],,25,?C
OC(=O)CCCCC(O)=O,adipic acid,4.58,Log unit,OC(=O)CCCCC(=O)O,,25,?C
OC(=O)CCCCC([O-])=O,adipic acid,4.7,Log unit,OC(=O)CCCCC(=O)[O-],,25,?C
OC(=O)CCCCCC(O)=O,pimelic acid,4.8,Log unit,OC(=O)CCCCCC(=O)O,,25,?C
OC(=O)CCCCCC([O-])=O,pimelic acid,5.2,Log unit,OC(=O)CCCCCC(=O)[O-],,25,?C
OC(=O)CCCCCCC(O)=O,SUBERIC ACID,4.82,Log unit,OC(=O)CCCCCCC(=O)O,,25,?C
OC(=O)CCCCCCC([O-])=O,SUBERIC ACID,5.2,Log unit,OC(=O)CCCCCCC(=O)[O-],,25,?C
OC(=O)CCCCCCCC(O)=O,azelaic acid,4.84,Log unit,OC(=O)CCCCCCCC(=O)O,,25,?C
OC(=O)CCCCCCCC([O-])=O,azelaic acid,5.2,Log unit,OC(=O)CCCCCCCC(=O)[O-],,25,?C
CC(C(O)=O)C(O)=O,Methylmalonic acid,3.36,Log unit,OC(=O)C(C)C(=O)O,,25,?C
CC(C(O)=O)C([O-])=O,Methylmalonic acid,5.5,Log unit,OC(=O)C(C)C(=O)[O-],,25,?C
CCC(C(O)=O)C(O)=O,ETHYLMALONIC ACID,3.3,Log unit,OC(=O)C(C(=O)O)CC,,25,?C
CCC(C(O)=O)C([O-])=O,ETHYLMALONIC ACID,5.5,Log unit,OC(=O)C(C(=O)[O-])CC,,25,?C
CCCC(C(O)=O)C(O)=O,n-Propylmalonic acid,3.3,Log unit,OC(=O)C(C(=O)O)CCC,,25,?C
CCCC(C(O)=O)C([O-])=O,n-Propylmalonic acid,5.54,Log unit,OC(=O)C(C(=O)[O-])CCC,,25,?C
CC(C)C(C(O)=O)C(O)=O,Isopropylmalonic acid,3.3,Log unit,OC(=O)C(C(=O)O)C(C)C,,25,?C
CC(C)C(C(O)=O)C([O-])=O,Isopropylmalonic acid,5.58,Log unit,OC(=O)C(C(=O)[O-])C(C)C,,25,?C
CC(C)(C(O)=O)C(O)=O,DIMETHYLMALONIC ACID,3.5,Log unit,OC(=O)C(C)(C)C(=O)O,,25,?C
CC(C)(C(O)=O)C([O-])=O,DIMETHYLMALONIC ACID,5.43,Log unit,OC(=O)C(C)(C)C(=O)[O-],,25,?C
CCC(C)(C(O)=O)C(O)=O,methylethylmalonic acid,3,Log unit,OC(=O)C(C)(C(=O)O)CC,,25,?C
CCC(C)(C(O)=O)C([O-])=O,methylethylmalonic acid,6.1,Log unit,OC(=O)C(C)(C(=O)[O-])CC,,25,?C
CCC(CC)(C(O)=O)C(O)=O,Diethylmalonic acid,2.48,Log unit,OC(=O)C(C(=O)O)(CC)CC,,25,?C
CCCC(CC)(C(O)=O)C(O)=O,ethyl-n-propylmalonic acid,2.43,Log unit,OC(=O)C(C(=O)O)(CC)CCC,,25,?C
CCCC(CCC)(C(O)=O)C(O)=O,di-n-Propylmalonic acid,2.355,Log unit,OC(=O)C(C(=O)O)(CCC)CCC,,25,?C
CC(C(C)C(O)=O)C(O)=O,"meso-alpha,alpha'-dimethylpyrotartaric acid",4.1,Log unit,OC(=O)C(C)C(C(=O)O)C,,25,?C
CC(C(C)C([O-])=O)C(O)=O,"meso-alpha,alpha'-dimethylpyrotartaric acid",5,Log unit,OC(=O)C(C(C(=O)[O-])C)C,,25,?C
CCC(CC(O)=O)C(O)=O,ethylpyrotartaric acid,4.38,Log unit,OC(=O)CC(C(=O)O)CC,,25,?C
CCC(CC)(CC(O)=O)C(O)=O,"alpha,alpha-diethylprotartaric acid",4.14,Log unit,OC(=O)CC(C(=O)O)(CC)CC,,25,?C
CCC(C(CC)C(O)=O)C(O)=O,"meso-alpha,alpha'-diethylprotartaric acid",3.93,Log unit,OC(=O)C(CC)C(C(=O)O)CC,,25,?C
CCC(C(CC)C([O-])=O)C(O)=O,"meso-alpha,alpha'-diethylprotartaric acid",6.1,Log unit,OC(=O)C(CC)C(C(=O)[O-])CC,,25,?C
CCC(C(CC)C(O)=O)C(O)=O,"rac-alpha,alpha'-diethylprotartaric acid",3.785,Log unit,OC(=O)C(CC)C(C(=O)O)CC,,25,?C
CCC(C(O)=O)C(CC)(CC)C(O)=O,triethylprotartaric acid,4,Log unit,OC(=O)C(CC)C(C(=O)O)(CC)CC,,25,?C
CC(C)(C(O)=O)C(C)(C)C(O)=O,tetramethylprotartaric acid,3.9,Log unit,OC(=O)C(C)(C)C(C(=O)O)(C)C,,25,?C
CC(CC(O)=O)CC(O)=O,beta-Methylglutaric acid,4.65,Log unit,OC(=O)CC(C)CC(=O)O,,25,?C
CCC(CC(O)=O)CC(O)=O,beta-ethylglutaric acid,4.585,Log unit,OC(=O)CC(CC)CC(=O)O,,25,?C
CC(C)(CC(O)=O)CC(O)=O,"beta,beta'-dimethylglutaric acid",4.2,Log unit,OC(=O)CC(C)(C)CC(=O)O,,25,?C
CCCC(CC(O)=O)CC(O)=O,beta-n-propylglutaric acid,4.61,Log unit,OC(=O)CC(CCC)CC(=O)O,,25,?C
CC(C)C(CC(O)=O)CC(O)=O,beta-Isopropylglutaric acid,4.615,Log unit,OC(=O)CC(C(C)C)CC(=O)O,,25,?C
CCC(C)(CC(O)=O)CC(O)=O,Beta-beta'-methyl-ethyl-glutaric acid,3.925,Log unit,OC(=O)CC(C)(CC)CC(=O)O,,25,?C
CCC(CC)(CC(O)=O)CC(O)=O,beta-beta'-diethylglutaric acid,3.85,Log unit,OC(=O)CC(CC)(CC)CC(=O)O,,25,?C
CCCC(C)(CC(O)=O)CC(O)=O,"beta,beta'-methyl-n-propylglutaric acid",3.93,Log unit,OC(=O)CC(C)(CCC)CC(=O)O,,25,?C
CCCC(CC)(CC(O)=O)CC(O)=O,"beta,beta-ethyl-n-propylglutaric acid",4.2,Log unit,OC(=O)CC(CC)(CCC)CC(=O)O,,25,?C
CCCC(CCC)(CC(O)=O)CC(O)=O,"beta,beta-di-n-propylglutaric acid",3.99,Log unit,OC(=O)CC(CCC)(CCC)CC(=O)O,,25,?C
OC(=O)C=C,ACRYLIC ACID,4.25,Log unit,OC(=O)C=C,,25,?C
CC=CC(O)=O,trans-Crotonic acid,4.695,Log unit,OC(=O)C=CC,,25,?C
OC(=O)CC=C,vinyl-acetic acid,4.35,Log unit,OC(=O)CC=C,,25,?C
CC(=C)C(O)=O,alpha-Methacrylic acid,4.66,Log unit,OC(=O)C(=C)C,,25,?C
CCC=CC(O)=O,2-PENTENOIC ACID,4.695,Log unit,OC(=O)C=CCC,,25,?C
CC=CCC(O)=O,n-butene-2-carboxylic acid -1,4.51,Log unit,OC(=O)CC=CC,,25,?C
CC1=NC2=C(C=CC=C2N)C=C1,8-Aminoquinaldine,4.86,Log unit,n1c(ccc2cccc(c12)N)C,,,-
CC1=NC2=C(C=CC=C2O)C=C1,8-HYDROXY-2-METHYLQUINOLINE,5.55,Log unit,n1c(ccc2cccc(c12)O)C,,,-
CC1=CC=NC2=C1C=CC=C2O,8-HYDROXY-4-METHYLQUINOLINE,5.56,Log unit,n1ccc(c2cccc(c12)O)C,,,-
C1=CC2=CC3=C(C=CC=C3)N=C2C=C1,acridine,5.6,Log unit,n1c2ccccc2cc2c1cccc2,,,-
C[C@H](N)C(O)=O,ALANINE2,9.87,Log unit,NC(C)C(=O)O,,,-
C[C@H](N)C(=O)NCC(=O)NCC(O)=O,ALANYLGLYCYLGLYCINE2,8.15,Log unit,NC(C)C(=O)NCC(=O)NCC(=O)O,,,-
NCC=C,allylamine,9.69,Log unit,NCC=C,,,-
NCC#N,AMINOACETONITRILE,5.34,Log unit,NCC#N,,,-
NC(C(O)=O)C(O)=O,AMINOMALONICACID2,9.83,Log unit,NC(C(=O)O)C(=O)O,,,-
NC1=CC=CC=C1,aniline,4.58,Log unit,Nc1ccccc1,,,-
[H]N=C(N)NCCC[C@H](N)C(O)=O,ARGININE2,8.99,Log unit,NC(CCCNC(=N)N)C(=O)O,,,-
[H]N=C(N)NCCC[C@H](N)C(O)=O,ARGININE3,12.48,Log unit,N=C(NCCCC(N)C(=O)O)N,,,-
N[C@@H](CC(N)=O)C(O)=O,ASPARAGINE2,8.72,Log unit,NC(CC(=O)N)C(=O)O,,,-
N[C@@H](CC(O)=O)C(O)=O,ASPARTICACID2,9.9,Log unit,NC(CC(=O)O)C(=O)O,,,-
C[C@H](N)C(=O)N[C@@H](CC1=CN=CN1)C(O)=O,B-ALANYLHISTIDINE3,6.86,Log unit,n1cc(CC(NC(=O)C(N)C)C(=O)O)[nH]c1,,,-
NC1=CC=C(C=C1)C1=CC=C(N)C=C1,Benzidine,4.7,Log unit,Nc1ccc(cc1)c1ccc(cc1)N,,,-
N1C=NC2=C1C=CC=C2,Benzimidazole,5.53,Log unit,n1c[nH]c2ccccc12,,,-
NCC1=CC=CC=C1,benzylamine,9.35,Log unit,NCc1ccccc1,,,-
CCCCN,Butylamine,10.64,Log unit,NCCCC,,,-
CCCCNC,Butylmethylamine,10.9,Log unit,N(C)CCCC,,,-
NC1CCCCC1,CYCLOHEXYLAMINE,10.64,Log unit,NC1CCCCC1,,,-
NC1CCCC1,Cyclopentylamine,10.65,Log unit,NC1CCCC1,,,-
NC1CC1,Cyclopropylamine,9.1,Log unit,NC1CC1,,,-
N[C@@H](CS)C(O)=O,CYSTEINE2,10.7,Log unit,SCC(N)C(=O)O,,,-
COCCNCCOC,DI(2-METHOXYETHYL)AMINE,9.51,Log unit,N(CCOC)CCOC,,,-
CCOCCNCCOCC,DI(ETHOXYETHYL)AMINE,8.47,Log unit,N(CCOCC)CCOCC,,,-
CC[C@H](C)N[C@@H](C)CC,DI-S-BUTYLAMINE,10.91,Log unit,N(C(CC)C)C(CC)C,,,-
C=CCNCC=C,diallylamine,9.29,Log unit,N(CC=C)CC=C,,,-
C(NCC1=CC=CC=C1)C1=CC=CC=C1,Dibenzylamine,8.52,Log unit,N(Cc1ccccc1)Cc1ccccc1,,,-
CCCCNCCCC,DIBUTYLAMINE,11.25,Log unit,N(CCCC)CCCC,,,-
C1CCC(CC1)NC1CCCCC1,DICYCLOHEXYLAMINE,11.25,Log unit,N(C1CCCCC1)C1CCCCC1,,,-
C1CCC(C1)NC1CCCC1,DICYCLOPENTYLAMINE,10.93,Log unit,N(C1CCCC1)C1CCCC1,,,-
CCCCCCCCCCCCNCCCCCCCCCCCC,Didodecylamine,10.99,Log unit,N(CCCCCCCCCCCC)CCCCCCCCCCCC,,,-
OCCNCCO,Diethanolamine,8.88,Log unit,N(CCO)CCO,,,-
CCNCC,Diethylamine,10.8,Log unit,N(CC)CC,,,-
CCN(C)CC,Diethylmethylamine,10.43,Log unit,N(CC)(CC)C,,,-
CCCCCCNCCCCCC,DIHEXYLAMINE,11,Log unit,N(CCCCCC)CCCCCC,,,-
CNC,DIMETHYLAMINE,10.77,Log unit,N(C)C,,,-
N(C1=CC=CC=C1)C1=CC=CC=C1,diphenylamine,0.9,Log unit,N(c1ccccc1)c1ccccc1,,,-
CCCNCCC,dipropylamine,10.91,Log unit,N(CCC)CCC,,,-
CCOC(=O)C1=CC=CN=C1,ETHYL3-PYRIDINECARBOXYLATE,3.35,Log unit,n1cc(ccc1)C(=O)OCC,,,-
CCOC(=O)C1=CC=NC=C1,ETHYL4-PYRIDINECARBOXYLATE,3.45,Log unit,n1ccc(cc1)C(=O)OCC,,,-
CCN,Ethylamine,10.63,Log unit,NCC,,,-
[H]N=CC,Ethylenimine,8.04,Log unit,N=CC,,,-
CCN1CCCC1,ETHYLPYRROLIDINE,10.43,Log unit,N1(CCCC1)CC,,,-
N[C@@H](CCC(O)=O)C(O)=O,GLUTAMICACID2,9.47,Log unit,NC(CCC(=O)O)C(=O)O,,,-
N[C@@H](CCC(N)=O)C(O)=O,GLUTAMINE2,9.13,Log unit,NC(CCC(=O)N)C(=O)O,,,-
NCC(O)=O,GLYCINE2,9.78,Log unit,NCC(=O)O,,,-
N[C@@H](CC1=CN=CN1)C(O)=O,HISTIDINE2,9.33,Log unit,NC(Cc1[nH]cnc1)C(=O)O,,,-
N[C@@H](CC1=CN=CN1)C(O)=O,HISTIDINE3,6.04,Log unit,n1cc(CC(N)C(=O)O)[nH]c1,,,-
N1C=CN=C1,Imidazole,6.95,Log unit,n1c[nH]cc1,,,-
N1C=CN=C1,IMMIDAZOLE,6.99,Log unit,n1c[nH]cc1,,,-
C1CC2=C(N1)C=CC=C2,indoline,4.9,Log unit,N1CCc2ccccc12,,,-
CC(C)CN,Isobutylamine,10.41,Log unit,NCC(C)C,,,-
CC[C@H](C)[C@H](N)C(O)=O,ISOLEUCINE2,9.76,Log unit,NC(C(C)CC)C(=O)O,,,-
CC(C)N,Isopropylamine,10.64,Log unit,NC(C)C,,,-
C1=CC2=C(C=C1)C=NC=C2,isoquinoline,5.4,Log unit,n1cc2ccccc2cc1,,,-
CC(C)C[C@H](N)C(O)=O,LEUCINE2,9.74,Log unit,NC(CC(C)C)C(=O)O,,,-
NCCCC[C@H](N)C(O)=O,LYSINE2,9.06,Log unit,NC(CCCCN)C(=O)O,,,-
NCCCC[C@H](N)C(O)=O,LYSINE3,10.54,Log unit,NCCCCC(N)C(=O)O,,,-
CC1=CC=CC(N)=C1,m-Toluidine,4.71,Log unit,Nc1cc(ccc1)C,,,-
CSCC[C@H](N)C(O)=O,METHIONINE2,9.28,Log unit,NC(CCSC)C(=O)O,,,-
COC(=O)CN,METHOXYCARBONYLMETHYLAMINE,7.66,Log unit,NCC(=O)OC,,,-
CN,Methylamine,10.62,Log unit,NC,,,-
C1COCCN1,morpholine,8.49,Log unit,N1CCOCC1,,,-
CN1CCN(C)CC1,"N,N'-dimethylpiperazine",8.54,Log unit,N1(CCN(CC1)C)C,,,-
CCN(CC)C1=CC=CC=C1C,"N,N-Diethyl-o-toluidine",7.18,Log unit,N(c1ccccc1C)(CC)CC,,,-
CCN(CC)C1=CC=CC=C1,"n,n-diethylaniline",6.56,Log unit,N(c1ccccc1)(CC)CC,,,-
CCN(CC)CC1=CC=CC=C1,"N,N-DIETHYLBENZYLAMINE",9.48,Log unit,N(CC)(CC)Cc1ccccc1,,,-
CCN(CC)CCN,"N,N-Diethylethylenediamine",10.46,Log unit,N(CC)(CC)CCN,,,-
CN(C)C1=CC(C)=CC=C1,"N,N-dimethyl-m-toluidine",5.34,Log unit,N(c1cc(ccc1)C)(C)C,,,-
CN(C)C1=CC=CC=C1C,"N,N-Dimethyl-o-toluidine",5.86,Log unit,N(c1ccccc1C)(C)C,,,-
CN(C)C1=CC=C(C)C=C1,"N,N-Dimethyl-p-toluidine",5.63,Log unit,N(c1ccc(cc1)C)(C)C,,,-
CN(C)C1CCCCC1,"N,N-Dimethylaminocyclohexane",10.72,Log unit,N(C1CCCCC1)(C)C,,,-
CN(C)C1=CC=CC=C1,"n,n-dimethylaniline",5.15,Log unit,N(c1ccccc1)(C)C,,,-
CN(C)CC1=CC=CC=C1,"N,N-DIMETHYLBENZYLAMINE",9.02,Log unit,N(C)(C)Cc1ccccc1,,,-
NCCNCCO,N-(2-Hydroxyethyl)ethylenediamine,10.12,Log unit,N(CCO)CCN,,,-
C[C@H](N)C(=O)NCC(O)=O,N-ALANYLGLYCINE2,8.11,Log unit,NC(C)C(=O)NCC(=O)O,,,-
CCCCNCC(O)=O,N-BUTYLGLYCINE2,10.25,Log unit,N(CC(=O)O)CCCC,,,-
CCNC1=CC=CC=C1C,N-Ethyl-o-toluidine,4.92,Log unit,N(c1ccccc1C)CC,,,-
CCNC1=CC=CC=C1,n-ethylaniline,5.11,Log unit,N(c1ccccc1)CC,,,-
CCN1CCOCC1,N-ETHYLMORPHOLINE,7.67,Log unit,N1(CCOCC1)CC,,,-
CC(C)NC1=CC=CC=C1,N-ISOPROPYLANILINE,5.5,Log unit,N(c1ccccc1)C(C)C,,,-