Smiles,Name,pKa,pKa Unit,Ionizable center smiles,IC group,Temperature,Temperature Unit
C1=CN=C(C=C1)C1=CC=NC=C1,2-(4-pyridyl)pyridine,4.37,Log unit,n1ccc(c2ncccc2)cc1,n,25,?C
C(CC1=CC=CC=N1)N1CCCC1,2-[2-(N-PYRROLIDINYL)ETHYL]PYRIDINE,9.39,Log unit,N1(CCc2ncccc2)CCCC1,nr2,25,?C
C(CC1=CN=CC=C1)N1CCCC1,3-[2-(N-PYRROLIDINYL)ETHYL]PYRIDINE,9.28,Log unit,N1(CCc2cnccc2)CCCC1,nr2,25,?C
C(CC1=CC=NC=C1)N1CCCC1,4-[2-(N-PYRROLIDINYL)ETHYL]PYRIDINE,9.27,Log unit,N1(CCc2ccncc2)CCCC1,nr2,25,?C
C(N1CCCC1)C1=CC=CC=N1,2-(1-PYRROLIDINYLMETHYL)PYRIDINE,8.56,Log unit,N1(Cc2ncccc2)CCCC1,nr2,25,?C
C(N1CCCC1)C1=CN=CC=C1,3-(1-Pyrrolidinylmethyl)pyridine,8.36,Log unit,N1(Cc2cnccc2)CCCC1,nr2,25,?C
C(N1CCCC1)C1=CC=NC=C1,4-(1-PYRROLIDINYLMETHYL)PYRIDINE,8.16,Log unit,N1(Cc2ccncc2)CCCC1,nr2,25,?C
[O-]S(=O)(=O)C1=NC=CC=C1,2-sulphopyridine,1.75,Log unit,n1c(S(=O)(=O)[O-])cccc1,n,25,?C
[O-]S(=O)(=O)C1=CN=CC=C1,3-sulphopyridine,2.9,Log unit,n1cc(S(=O)(=O)[O-])ccc1,n,25,?C
[O-]S(=O)(=O)C1=CC=NC=C1,4-sulphopyridine,3.44,Log unit,n1ccc(S(=O)(=O)[O-])cc1,n,25,?C
CC1=CC(C)=C(C)N=C1C,"2,3,5,6-TETRAMETHYLPYRIDINE",7.9,Log unit,n1c(c(cc(c1C)C)C)C,n,25,?C
CNC1=C(C)C(C)=NC(C)=C1C,"2,3,5,6-tetramethyl-4-methylaminopyridine",10.07,Log unit,n1c(c(c(NC)c(c1C)C)C)C,n,25,?C
BrC1=C(Br)C(Br)=C(Br)N=C1,"2,3,4,5-tetrabromopyridine",-2.47,Log unit,n1c(c(Br)c(Br)c(c1)Br)Br,n,25,?C
OC(=O)C1CC(C([NH2+]C1C([O-])=O)C([O-])=O)C(O)=O,"2,3,5,6-tetracarboxypyridine",2.84,Log unit,OC(=O)C1C([NH2+]C(C([CH]1)C(=O)O)C(=O)[O-])C(=O)[O-],co2h,25,?C
OC(=O)C1CC(C([NH2+]C1C([O-])=O)C([O-])=O)C([O-])=O,"2,3,5,6-tetracarboxypyridine",3.86,Log unit,OC(=O)C1[CH]C(C([NH2+]C1C(=O)[O-])C(=O)[O-])C(=O)[O-],co2h,25,?C
OC(=O)C1=C(N=C(C([O-])=O)C(=C1)C([O-])=O)C([O-])=O,"2,3,5,6-tetracarboxypyridine",5.58,Log unit,OC(=O)c1cc(c(nc1C(=O)[O-])C(=O)[O-])C(=O)[O-],co2h,25,?C
ClC1=CC(Cl)=C(Cl)N=C1Cl,"2,3,5,6-TETRACHLOROPYRIDINE",-5.5,Log unit,n1c(Cl)c(Cl)cc(c1Cl)Cl,n,25,?C
OC1=C(Cl)C(Cl)=NC(Cl)=C1Cl,"2,3,5,6-tetrachloro-4-hydroxypyridine",-4.1,Log unit,n1c(Cl)c(Cl)c(c(c1Cl)Cl)O,n,25,?C
OC1=C(Cl)C(Cl)=NC(Cl)=C1Cl,"2,3,5,6-tetrachloro-4-hydroxypyridine",2,Log unit,Oc1c(c(Cl)nc(Cl)c1Cl)Cl,oh,25,?C
CC1=NC(C)=C(C)C(=C1C)N(=O)=O,"2,3,5,6-tetramethyl-4-nitropyridine",4.08,Log unit,n1c(c(C)c(N(=O)=O)c(c1C)C)C,n,25,?C
BrC1=C(Br)C(Br)=NC=C1,"2,3,4-tribromopyridine",-1.07,Log unit,n1c(Br)c(Br)c(cc1)Br,n,25,?C
BrC1=CC=C(Br)C(Br)=N1,"2,3,6-tribromopyridine",-3.81,Log unit,n1c(Br)c(Br)ccc1Br,n,25,?C
BrC1=CC(Br)=NC(Br)=C1,"2,4,6-tribromopyridine",-3.36,Log unit,n1c(Br)cc(cc1Br)Br,n,25,?C
BrC1=CN=CC(Br)=C1Br,"3,4,5-tribromopyridine",0.45,Log unit,n1cc(c(Br)c(Br)c1)Br,n,25,?C
COC1=C(Cl)C(Cl)=NC=C1Cl,"2,3,5-trichloro-4-methoxypyridine",-2.06,Log unit,n1c(Cl)c(Cl)c(c(c1)Cl)OC,n,25,?C
CC1=CC(C)=NC(C)=C1,"2,4,6-Trimethylpyridine",7.455,Log unit,n1c(cc(C)cc1C)C,n,25,?C
C=CC1=CC=CC=N1,2-VINYLPYRIDINE,4.95,Log unit,n1ccccc1C=C,n,25,?C
CC1=CC=C(C=CC2=CC=NC=C2)C=C1,trans-4-p-methylstyryl-pyridine,5.94,Log unit,n1ccc(C=Cc2ccc(C)cc2)cc1,n,25,?C
O=N(=O)C1=CN=CC=C1,3-nitro-pyridine,0.79,Log unit,n1cccc(c1)N(=O)=O,n,25,?C
O=N(=O)C1=CC(=CC=C1)C1=CC=NC=C1,4-m-nitrophenyl-pyridine,4.9,Log unit,n1ccc(c2cccc(c2)N(=O)=O)cc1,n,25,?C
O=N(=O)C1=CC=C(C=C1)C1=CC=NC=C1,4-p-nitrophenyl-pyridine,4.87,Log unit,n1ccc(c2ccc(N(=O)=O)cc2)cc1,n,25,?C
O=N(=O)C1=CC=C(C=CC2=CC=NC=C2)C=C1,trans-p-nitrostyryl-pyridine,5.15,Log unit,n1ccc(C=Cc2ccc(N(=O)=O)cc2)cc1,n,25,?C
C1=CC=C(C=C1)C1=CN=CC=C1,3-phenyl-pyridine,4.8,Log unit,n1cccc(c1)c1ccccc1,n,25,?C
C1=CC=C(C=C1)C1=CC=NC=C1,4-Phenyl-pyridine,5.55,Log unit,n1ccc(c2ccccc2)cc1,n,25,?C
C1=CC=C(C=C1)N=NC1=CC=NC=C1,4-phenylazo-pyridine,3.5,Log unit,n1ccc(N=Nc2ccccc2)cc1,n,25,?C
C1=CC(=CN=C1)C1=CN=CC=C1,3-(3-pyridyl)-pyridine,4.6,Log unit,n1cccc(c1)c1cnccc1,n,25,?C
C1=CC(=CN=C1)C1=CC=NC=C1,3-(4-pyridyl)-pyridine,4.85,Log unit,n1ccc(c2cnccc2)cc1,n,25,?C
C1=CC(=CC=N1)C1=CC=NC=C1,4-(4-pyridyl)-pyridine,4.82,Log unit,n1ccc(c2ccncc2)cc1,n,25,?C
C(=CC1=CC=NC=C1)C1=CC=CC=C1,trans-4-styryl-pyridine,5.92,Log unit,n1ccc(C=Cc2ccccc2)cc1,n,25,?C
C=CC1=CC=NC=C1,4-vinyl-pyridine,5.62,Log unit,n1ccc(C=C)cc1,n,25,?C
C1=CN=CC=N1,Pyrazine,0.8,Log unit,n1ccncc1,n,25,?C
CNC1=C(N=CC=N1)C(N)=N,"Pyrazine, 2-amidino-3-methylamino-",8.96,Log unit,C(=N)(c1c(nccn1)NC)N,neth,25,?C
CS(=O)(=O)C1=NC=CN=C1,2-methylsulphonylpyrazine,-2.47,Log unit,n1c(S(=O)(=O)C)cncc1,n,25,?C
SC1CNCC[NH2+]1,2-mercaptopyrazine,-0.73,Log unit,SC1[NH2+][CH][CH]N[CH]1,sh,25,?C
COC1CCC(S)[NH2+]N1,3-methoxy-6-mercaptopyridazine,-2.36,Log unit,SC1[NH2+]NC(OC)[CH][CH]1,sh,25,?C
C1=CN=NC=C1,pyridazine,2.6,Log unit,n1ncccc1,n,25,?C
COC1=CC=C(OC)N=N1,"3,6-dimethoxypyridazine",1.31,Log unit,n1nc(OC)ccc1OC,n,25,?C
CC1=CC=C(C)N=N1,"2,6-dimethylpyridazine",3.69,Log unit,n1nc(ccc1C)C,n,25,?C
SC1CCCN[NH2+]1,3-mercaptopyridazine,-2.68,Log unit,SC1[NH2+]N[CH][CH][CH]1,sh,25,?C
CC1=C(C)C(C)=C(C)N=N1,"3,4,5,6-tetramethylpyridazine",5.06,Log unit,n1nc(C)c(C)c(c1C)C,n,25,?C
C1=CN=CN=C1,pyrimidine,0.93,Log unit,n1cnccc1,n,25,?C
NC1=NC=CC=N1,2-Aminopyrimidine,3.3,Log unit,n1cccnc1N,n,25,?C
NC1=CN=CN=C1,5-amino-pyrimidine,2.27,Log unit,n1cncc(c1)N,n,25,?C
NC1=NC=C(Br)C=N1,2-Amino-5-bromopyrimidine,1.95,Log unit,n1cc(Br)cnc1N,n,25,?C
CC1=NC(N)=NC(C)=C1Br,"2-amino-5-bromo-4,6-dimethylpyrimidine",3,Log unit,n1c(c(Br)c(nc1N)C)C,n,25,?C
NC(=O)C1=CN=C(N)N=C1,2-amino-5-carbamoylpyrimidine,1.8,Log unit,n1cc(cnc1N)C(=O)N,n,25,?C
CC1=NC(N)=NC(C)=C1C(N)=O,"2-amino-5-carbamoyl-4,6-dimethylpyrimidine",3.11,Log unit,n1c(nc(C)c(c1C)C(=O)N)N,n,25,?C
CC1=C(C=NC(N)=N1)C(N)=O,2-amino-5-carbamoyl-4-methylpyrimidine,2.6,Log unit,n1cc(c(C)nc1N)C(=O)N,n,25,?C
NC1=CC(Cl)=NC=N1,4-amino-6-chloropyrimidine,2.1,Log unit,n1c(Cl)cc(nc1)N,n,25,?C
CC1=CC(C)=NC(N)=N1,"2-AMINO-4,6-DIMETHYLPYRIMIDINE",4.675,Log unit,n1c(nc(C)cc1C)N,n,25,?C
CC1=NC(N)=NC(C)=C1C1=CC=C(C=C1)N(=O)=O,"2-amino-4,6-dimethyl-5-(4-nitrophenyl)pyrimidine",4.54,Log unit,n1c(c(c2ccc(N(=O)=O)cc2)c(nc1N)C)C,n,25,?C
CC1=NC(N)=NC(C)=C1C1=CC(=CC=C1)N(=O)=O,"2-amino-4,6-dimethyl-5-(3-nitrophenyl)pyrimidine",4.17,Log unit,n1c(c(c2cc(N(=O)=O)ccc2)c(nc1N)C)C,n,25,?C
CC1=NC(N)=NC(C)=C1C1=CC=C(C=C1)N(=O)=O,"2-amino-4,6-dimethyl-5-(4-nitrophenyl)pyrimidine",4.24,Log unit,n1c(c(c2ccc(N(=O)=O)cc2)c(nc1N)C)C,n,25,?C
CC1=NC(N)=NC(C)=C1C1=CC=CC=C1,"2-amino-4,6-dimethyl-5-phenylpyrimidine",4.61,Log unit,n1c(c(c2ccccc2)c(nc1N)C)C,n,25,?C
CN(C)C1=C(C)C=NC=C1C,"3,5-dimethyl-4-dimethylaminopyridine",7.965,Log unit,n1cc(C)c(N(C)C)c(c1)C,n,25,?C
CNC1=C(C)C=NC=C1C,"3,5-dimethyl-4-methylaminopyridine",9.925,Log unit,n1cc(C)c(NC)c(c1)C,n,25,?C
CC1=CN=CC(C)=C1N(=O)=O,"3,5-dimethyl-4-nitropyridine",2.51,Log unit,n1cc(C)c(N(=O)=O)c(c1)C,n,25,?C
CC1=CC=C(C(C)=N1)S([O-])(=O)=O,2.6-dimethyl-3-sulphopyridine,4.89,Log unit,n1c(c(S(=O)(=O)[O-])ccc1C)C,n,25,?C
CC1=CC(=CC(C)=N1)S(O)(=O)=O,2.6-dimethyl-4-sulphopyridine,5.09,Log unit,n1c(cc(S(=O)(=O)O)cc1C)C,n,25,?C
CCOC1=CC=NC=C1,4-ETHOXYPYRIDINE,6.67,Log unit,n1ccc(OCC)cc1,n,25,?C
CCOC(=O)C1=CN=CC=C1,3-ethoxycarbonylpyridine,3.35,Log unit,n1cccc(c1)C(=O)OCC,n,25,?C
CCOC(=O)C1=CC=NC=C1,4-ethoxycarbonylpyridine,3.45,Log unit,n1ccc(C(=O)OCC)cc1,n,25,?C
CCOC1=CC=NC=C1N(=O)=O,4-Ethoxy-3-nitropyridine,2.67,Log unit,n1ccc(OCC)c(c1)N(=O)=O,n,25,?C
CCC1=CC=CC=N1,2-ETHYLPYRIDINE,5.98,Log unit,n1ccccc1CC,n,25,?C
CCC1=CN=CC=C1,3-ETHYLPYRIDINE,5.7,Log unit,n1cccc(c1)CC,n,25,?C
CCC1=CC=NC=C1,4-ETHYLPYRIDINE,6.02,Log unit,n1ccc(CC)cc1,n,25,?C
CCC1=CN=CC(C)=C1,3-ethyl-5-methylpyridine,6.3,Log unit,n1cc(cc(c1)CC)C,n,25,?C
CCC1=CC=C(C)N=C1,3-Ethyl-6-methylpyridine,6.51,Log unit,n1cc(ccc1C)CC,n,25,?C
CCC1=CN=CC=C1NC,3-ethyl-4-methylaminopyridine,9.89,Log unit,n1ccc(NC)c(c1)CC,n,25,?C
CCC1=CN=CC=C1N(=O)=O,3-ethyl-4-nitropyridine,2.16,Log unit,n1ccc(N(=O)=O)c(c1)CC,n,25,?C
FC1=CC=CC=N1,2-FLUOROPYRIDINE,-0.44,Log unit,n1ccccc1F,n,25,?C
FC1=CN=CC=C1,3-fluoro-pyridine,2.985,Log unit,n1cccc(c1)F,n,25,?C
O=CC1=CC=CC=N1,2-Formylpyridine,3.78,Log unit,n1ccccc1C=O,n,25,?C
O=CC1=CN=CC=C1,3-FORMYLPYRIDINE,3.749,Log unit,n1cccc(c1)C=O,n,25,?C
O=CC1=CC=NC=C1,4-FORMYLPYRIDINE,4.65,Log unit,n1ccc(C=O)cc1,n,25,?C
OC1=C(C=O)N=CC=C1,2-FORMYL-3-HYDROXYPYRIDINE,3.4,Log unit,n1cccc(c1C=O)O,n,25,?C
OC1=CN=CC=C1C=O,4-FORMYL-3-HYDROXYPYRIDINE,4.05,Log unit,n1ccc(C=O)c(c1)O,n,25,?C
COC1=C(C=O)N=CC=C1,2-FORMYL-3-METHOXYPYRIDINE,3.89,Log unit,n1cccc(c1C=O)OC,n,25,?C
COC1=CN=CC=C1C=O,4-FORMYL-3-METHOXYPYRIDINE,4.45,Log unit,n1ccc(C=O)c(c1)OC,n,25,?C
CCCCCCC1=CC=CC=N1,2-Hexylpyridine,5.95,Log unit,n1ccccc1CCCCCC,n,25,?C
[O-]C1=NC=CC=C1,2-hydroxypyridine,11.8,Log unit,n1c([O-])cccc1,n,25,?C
OC1CCCC[NH2+]1,2-hydroxypyridine,0.75,Log unit,OC1[NH2+][CH][CH][CH][CH]1,oh,25,?C
OC1=CN=CC=C1,3-hydroxypyridine,4.795,Log unit,n1cccc(c1)O,n,25,?C
[O-]C1=CC=NC=C1,4-hydroxypyridine,11.12,Log unit,n1ccc([O-])cc1,n,25,?C
OC1CC[NH2+]CC1,4-hydroxypyridine,3.2,Log unit,OC1[CH][CH][NH2+][CH][CH]1,oh,25,?C
OC(C1=CC=CC=C1)C1=NC=CC=C1,2-hydroxybenzyl-pyridine,4.435,Log unit,n1c(C(O)c2ccccc2)cccc1,n,25,?C
NNC(=O)C1=CN=CC=C1,3-hydrazinocarbonylpyridine,3.29,Log unit,n1cccc(c1)C(=O)NN,n,25,?C
NNC(=O)C1=CC=NC=C1,4-hydrazinocarbonylpyridine,3.52,Log unit,n1ccc(C(=O)NN)cc1,n,25,?C
OC(C1=CC=CC=C1)(C1=CC=CC=C1)C1=NC=CC=C1,2-(hydroxydiphenylmethyl)pyridine,3.9,Log unit,n1c(C(c2ccccc2)(c2ccccc2)O)cccc1,n,25,?C
OCCC1=CC=NC=C1,4-(2-Hydroxyethyl)pyridine,5.6,Log unit,n1ccc(CCO)cc1,n,25,?C
CC(O)C1=CC=CC(C)=N1,2-(1-hydroxyethyl)-6-methylpyridine,5.2,Log unit,n1c(cccc1C(O)C)C,n,25,?C
CC1=NC(CCO)=CC=C1,2-(2-hydroxyethyl)-6-methylpyridine,6.1,Log unit,n1c(cccc1CCO)C,n,25,?C
COC1=C(O)C=CC=N1,3-hydroxy-2-methoxypyridine,2.1,Log unit,n1cccc(c1OC)O,n,25,?C
COC1=C(O)C=CC=N1,3-hydroxy-2-methoxypyridine,8.65,Log unit,Oc1c(nccc1)OC,oh,25,?C
OCC1=CC=CC=N1,2-hydroxymethylpyridine,4.83,Log unit,n1ccccc1CO,n,25,?C
OCC1=CN=CC=C1,3-Hydroxymethylpyridine,4.925,Log unit,n1cccc(c1)CO,n,25,?C
OCC1=CC=NC=C1,4-Hydroxymethylpyridine,5.39,Log unit,n1ccc(CO)cc1,n,25,?C
CC1=NC(CO)=CC=C1,2-Hydroxymethyl-6-methylpyridine,5.43,Log unit,n1c(cccc1CO)C,n,25,?C
OCCCC1=CC=CC=N1,2-(3-hydroxypropyl)pyridine,5.61,Log unit,n1ccccc1CCCO,n,25,?C
OCCCC1=CN=CC=C1,3-(3-hydroxypropyl)-pyridine,5.47,Log unit,n1cccc(c1)CCCO,n,25,?C
OCCCC1=CC=NC=C1,4-(3-Hydroxypropyl)pyridine,5.84,Log unit,n1ccc(CCCO)cc1,n,25,?C
SC1[NH2+]CCCC1N(=O)=O,2-mercapto-3-nitropyridine,-2.49,Log unit,SC1[NH2+][CH][CH][CH]C1N(=O)=O,sh,25,?C
[S-]C1=NC=CC=C1N(=O)=O,2-mercapto-3-nitropyridine,6.9,Log unit,n1c([S-])c(ccc1)N(=O)=O,n,25,?C
OCC1=C(O)C=CC=N1,3-hydroxy-2-hydroxymethylpyridine,5,Log unit,n1cccc(c1CO)O,n,25,?C
OCC1=CC=NC=C1O,3-hydroxy-4-hydroxymethylpyridine,5,Log unit,n1ccc(CO)c(c1)O,n,25,?C
CC1=C(O)C(C)=C(CO)C=N1,"3-hydroxy-5-hydroxymethyl-2,4-dimethylpyridine",5.4,Log unit,n1cc(c(C)c(c1C)O)CO,n,25,?C
OC1=CC=CC=C1C1=CC=CC=N1,2-(2-hydroxyphenyl)pyridine,4.19,Log unit,n1ccccc1c1ccccc1O,n,25,?C
IC1=NC=CC=C1,2-Iodopyridine,1.82,Log unit,n1c(I)cccc1,n,25,?C
IC1=CN=CC=C1,3-Iodo-pyridine,3.25,Log unit,n1cc(I)ccc1,n,25,?C
IC1=CC=NC=C1,4-iodo-pyridine,4.02,Log unit,n1ccc(I)cc1,n,25,?C
COC1=NC=C(I)C=C1,5-iodo-2-methoxypyridine,1.51,Log unit,n1cc(I)ccc1OC,n,25,?C
CC(C)C1=CC=CC=N1,2-Isopropylpyridine,5.83,Log unit,n1ccccc1C(C)C,n,25,?C
CC(C)C1=CN=CC=C1,3-ISOPROPYLPYRIDINE,5.8,Log unit,n1cccc(c1)C(C)C,n,25,?C
CC(C)C1=CC=NC=C1,4-Isopropylpyridine,6.02,Log unit,n1ccc(C(C)C)cc1,n,25,?C
CNC1=CC=NC=C1C(C)C,3-isopropyl-4-methylaminopyridine,9.98,Log unit,n1ccc(NC)c(c1)C(C)C,n,25,?C
CC(C)C1=CN=CC=C1N(=O)=O,3-isopropyl-4-nitropyridine,2.22,Log unit,n1ccc(N(=O)=O)c(c1)C(C)C,n,25,?C
SC1CCCC[NH2+]1,2-Mercaptopyridine,-1.07,Log unit,SC1[NH2+][CH][CH][CH][CH]1,sh,25,?C
[S-]C1=NC=CC=C1,2-Mercaptopyridine,9.8,Log unit,n1c([S-])cccc1,n,25,?C
[S-]C1=CN=CC=C1,3-Mercaptopyridine,7.03,Log unit,n1cc([S-])ccc1,n,25,?C
SC1CCC[NH2+]C1,3-Mercaptopyridine,2.26,Log unit,SC1[CH][NH2+][CH][CH][CH]1,sh,25,?C
SC1CC[NH2+]CC1,4-Mercaptopyridine,1.455,Log unit,SC1[CH][CH][NH2+][CH][CH]1,sh,25,?C
[S-]C1=CC=NC=C1,4-Mercaptopyridine,8.86,Log unit,n1ccc([S-])cc1,n,25,?C
COC1=CC=CC=N1,2-METHOXYPYRIDINE,3.25,Log unit,n1ccccc1OC,n,25,?C
COC1=CN=CC=C1,3-methoxy-pyridine,4.91,Log unit,n1cccc(c1)OC,n,25,?C
COC1=CC=NC=C1,4-methoxy-pyridine,6.51,Log unit,n1ccc(OC)cc1,n,25,?C
COC(=O)C1=CC=CC=N1,2-METHOXYCARBONYLPYRIDINE,2.21,Log unit,n1ccccc1C(=O)OC,n,25,?C
COC1=C(C)C(=CN=C1)C1=CC=CC=C1,3-methoxy-4-methyl-5-phenylpyridine,5,Log unit,n1cc(c2ccccc2)c(c(c1)OC)C,n,25,?C
COC(=O)C1=CC(OC)=CC(=N1)C(=O)OC,"4-methoxy-2,6-bis(methoxycarbonyl)pyridine",0.18,Log unit,n1c(cc(OC)cc1C(=O)OC)C(=O)OC,n,25,?C
COC(=O)C1=CN=CC=C1,3-METHOXYCARBONYLPYRIDINE,3.13,Log unit,n1cccc(c1)C(=O)OC,n,25,?C
COC(=O)C1=CC=NC=C1,4-Methoxycarbonylpyridine,3.26,Log unit,n1ccc(C(=O)OC)cc1,n,25,?C
COC(=O)C1=C(N=C(OC)C=C1)C(=O)OC,"2-methoxy-5,6-di(methoxycarbonyl)pyridine",-2.27,Log unit,n1c(ccc(c1C(=O)OC)C(=O)OC)OC,n,25,?C
COCC1=C(COC)N=C(OC)C=C1,"2-methoxy-5,6-di(methoxymethyl)pyridine",2.55,Log unit,n1c(ccc(c1COC)COC)OC,n,25,?C
COC1=CC=C(C)C(C)=N1,"2-methoxy-5,6-dimethylpyridine",4.86,Log unit,n1c(c(ccc1OC)C)C,n,25,?C
COC1=CC=C(CSC)C(CSC)=N1,"2-methoxy-5,6-di(methylthiomethyl)pyridine",2.64,Log unit,n1c(CSC)c(ccc1OC)CSC,n,25,?C
COC1=CC=C(C=CC2=CC=NC=C2)C=C1,trans-4-p-methoxystyryl-pyridine,6.03,Log unit,n1ccc(C=Cc2ccc(OC)cc2)cc1,n,25,?C
COC1=CC=C(C)C=N1,2-methoxy-5-methylpyridine,3.73,Log unit,n1cc(ccc1OC)C,n,25,?C
COC1=CC=NC=C1N(=O)=O,4-methoxy-3-nitropyridine,2.62,Log unit,n1ccc(OC)c(c1)N(=O)=O,n,25,?C
CC1=CC=CC=N1,2-METHYLPYRIDINE,5.94,Log unit,n1ccccc1C,n,25,?C
CC1=CN=CC=C1,3-methyl-pyridine,5.65,Log unit,n1cccc(c1)C,n,25,?C
CC1=CC=NC=C1,4-methyl-pyridine,6.03,Log unit,n1ccc(C)cc1,n,25,?C
CN(C(C)=O)C1=CC=CC=N1,2-(N-methylacetamido)pyridine,2.01,Log unit,n1ccccc1N(C(=O)C)C,n,25,?C
CN(C(C)=O)C1=CN=CC=C1,3-(N-methylacetamido)pyridine,3.52,Log unit,n1cccc(c1)N(C(=O)C)C,n,25,?C
CN(C(C)=O)C1=CC=NC=C1,4-(N-methylacetamido)pyridine,4.62,Log unit,n1ccc(N(C(=O)C)C)cc1,n,25,?C
CNC1=CC=NC=C1,4-Methylaminopyridine,9.65,Log unit,n1ccc(NC)cc1,n,25,?C
CNCCC1=CC=CC=N1,2-(2-METHYLAMINOETHYL)PYRIDINE,9.715,Log unit,N(CCc1ncccc1)C,nr2,25,?C
C[NH2+]CCC1=CC=CC=N1,2-(2-METHYLAMINOETHYL)PYRIDINE,3.57,Log unit,n1ccccc1CC[NH2+]C,n,25,?C
CNCC1=CC=CC=N1,2-methylaminomethylpyridine,9.200001,Log unit,N(Cc1ncccc1)C,nr2,25,?C
C[NH2+]CC1=CC=CC=N1,2-methylaminomethylpyridine,2.9,Log unit,n1ccccc1C[NH2+]C,n,25,?C
CC1=CN=CC=C1N(=O)=O,3-methyl-4-nitropyridine,2.26,Log unit,n1ccc(N(=O)=O)c(c1)C,n,25,?C
CN(C(=O)C1=CC=CC=C1)C1=CN=CC=C1,3-(N-methylbenzamido)pyridine,3.66,Log unit,n1cccc(c1)N(C(=O)c1ccccc1)C,n,25,?C
CN(C(=O)C1=CC=CC=C1)C1=CC=NC=C1,4-(N-methylbenzamido)pyridine,4.68,Log unit,n1ccc(N(C(=O)c2ccccc2)C)cc1,n,25,?C
CNC1=CC=NC=C1C,3-methyl-4-methylaminopyridine,9.84,Log unit,n1ccc(NC)c(c1)C,n,25,?C
CC1=CC(=NC=C1)C1=CC(C)=CC=N1,"4-METHYL-2,2'-(4-METHYLPYRIDYL)PYRIDINE",5.02,Log unit,n1ccc(C)cc1c1nccc(c1)C,n,25,?C
CS(=O)(=O)C1=NC=CC=C1,2-methylsulphonylpyridine,-1.5,Log unit,n1c(S(=O)(=O)C)cccc1,n,25,?C
CC(C)(C)C1=NC=CC=C1,2-Bromopyridine,5.78,Log unit,n1c(C(C)(C)C)cccc1,n,25,?C
BrC1=CN=CC=C1,3-bromo-pyridine,2.875,Log unit,n1cc(Br)ccc1,n,25,?C
BrC1=CC=NC=C1,4-bromo-pyridine,3.78,Log unit,n1ccc(Br)cc1,n,25,?C
COC1=CC(Br)=CN=C1,3-bromo-5-methoxypyridine,2.6,Log unit,n1cc(Br)cc(c1)OC,n,25,?C
COC1=NC=C(Br)C=C1,5-Bromo-2-methoxypyridine,1.14,Log unit,n1cc(Br)ccc1OC,n,25,?C
CN(C)C1=CC=NC=C1Br,3-bromo-4-dimethylaminopyridine,6.53,Log unit,n1cc(Br)c(cc1)N(C)C,n,25,?C
CNC1=CC=NC=C1Br,3-BROMO-4-METHYLAMINOPYRIDINE,7.49,Log unit,n1cc(Br)c(cc1)NC,n,25,?C
CC(C)(C)C1=CC=CC=N1,2-T-BUTYLPYRIDINE,5.76,Log unit,n1ccccc1C(C)(C)C,n,25,?C
CC(C)(C)C1=CN=CC=C1,3-T-BUTYLPYRIDINE,5.82,Log unit,n1cccc(c1)C(C)(C)C,n,25,?C
CC(C)(C)C1=CC=NC=C1,4-T-BUTYLPYRIDINE,5.99,Log unit,n1ccc(C(C)(C)C)cc1,n,25,?C
NC(=O)C1=CC=CC=N1,2-Carbamoylpyridine,2.1,Log unit,n1ccccc1C(=O)N,n,25,?C
NC(=O)C1=CN=CC=C1,3-Carbamoylpyridine,3.339,Log unit,n1cccc(c1)C(=O)N,n,25,?C
NC(=O)C1=CC=NC=C1,4-Carbamoylpyridine,3.61,Log unit,n1ccc(C(=O)N)cc1,n,25,?C
OC(=O)C1CCCC[NH2+]1,2-Carboxypyridine,1,Log unit,OC(=O)C1[NH2+][CH][CH][CH][CH]1,co2h,25,?C
OC(=O)C1CCC[NH2+]C1,3-Carboxypyridine,2.03,Log unit,OC(=O)C1[CH][NH2+][CH][CH][CH]1,co2h,25,?C
OC(=O)C1CC[NH2+]CC1,4-Carboxypyridine,1.755,Log unit,OC(=O)C1[CH][CH][NH2+][CH][CH]1,co2h,25,?C
CC1CCCC([NH2+]1)C(O)=O,2-Carboxy-6-methylpyridine,0.9,Log unit,OC(=O)C1[NH2+]C([CH][CH][CH]1)C,co2h,25,?C
CC1=NC(=CC=C1)C([O-])=O,2-Carboxy-6-methylpyridine,5.8,Log unit,n1c(cccc1C(=O)[O-])C,n,25,?C
ClC1=NC=CC=C1,2-chloropyridine,0.605,Log unit,n1c(Cl)cccc1,n,25,?C
ClC1=CN=CC=C1,3-chloro-pyridine,2.84,Log unit,n1cc(Cl)ccc1,n,25,?C
ClC1=CC=NC=C1,4-chloro-pyridine,3.84,Log unit,n1ccc(Cl)cc1,n,25,?C
CN(C)CCC(C1=CC=C(Cl)C=C1)C1=NC=CC=C1,2-[p-chloro-alpha(2-dimethylaminoethyl)benzyl]-pyridine,9.16,Log unit,N(CCC(c1ccc(Cl)cc1)c1ncccc1)(C)C,nr2,25,?C
[O-]C1=CC(Cl)=NC=C1,2-chloro-4-hydroxypyridine,6.84,Log unit,n1c(Cl)cc(cc1)[O-],n,25,?C
OC1CC[NH2+]C(Cl)C1,2-chloro-4-hydroxypyridine,2.07,Log unit,OC1[CH]C(Cl)[NH2+][CH][CH]1,oh,25,?C
[O-]C1=NC=C(Cl)C=C1,5-Chloro-2-hydroxypyridine,10.03,Log unit,n1cc(Cl)ccc1[O-],n,25,?C
OC1CCC(Cl)C[NH2+]1,5-Chloro-2-hydroxypyridine,0.01,Log unit,OC1[NH2+][CH]C(Cl)[CH][CH]1,oh,25,?C
COC1=CC(Cl)=NC=C1,2-chloro-4-methoxypyridine,1.93,Log unit,n1c(Cl)cc(cc1)OC,n,25,?C
COC1=CC=CC(Cl)=N1,2-Chloro-6-methoxypyridine,-0.13,Log unit,n1c(Cl)cccc1OC,n,25,?C
COC1=NC=C(Cl)C=C1,5-chloro-2-methoxypyridine,1.18,Log unit,n1cc(Cl)ccc1OC,n,25,?C
ClC1=NC=CC=C1N(=O)=O,2-Chloro-3-nitropyridine,-2.6,Log unit,n1c(Cl)c(ccc1)N(=O)=O,n,25,?C
C(C=C(C1=CC=CC=C1)C1=CC=CC=N1)N1CCCC1,2-(1-p-chlorophenyl-3-pyrrolidino)prop-1-enylpyridine,9.37,Log unit,N1(CC=C(c2ncccc2)c2ccccc2)CCCC1,nr2,25,?C
C(C=C(C1=CC=CC=C1)C1=CC=CC=N1)[NH+]1CCCC1,2-(1-p-chlorophenyl-3-pyrrolidino)prop-1-enylpyridine,3.2,Log unit,n1ccccc1C(=CC[NH+]1CCCC1)c1ccccc1,n,25,?C
ClC1=CC=C(C=CC2=CC=NC=C2)C=C1,trans-4-p-chlorostyryl-pyridine,5.66,Log unit,n1ccc(C=Cc2ccc(Cl)cc2)cc1,n,25,?C
N#CC1=CC=CC=N1,2-cyanopyridine,-0.26,Log unit,n1ccccc1C#N,n,25,?C
N#CC1=CN=CC=C1,3-cyano-pyridine,1.375,Log unit,n1cccc(c1)C#N,n,25,?C
N#CC1=CC=NC=C1,4-cyano-pyridine,1.9,Log unit,n1ccc(C#N)cc1,n,25,?C
NC1=C(N)N=CC=C1,"2,3-Diaminopyridine",6.899,Log unit,n1cccc(c1N)N,n,25,?C
NC1=CC=C(N)N=C1,"2,5-Diaminopyridine",6.48,Log unit,n1cc(ccc1N)N,n,25,?C
NC1=CC=NC=C1N,"4,5-Diaminopyridine",9.01,Log unit,n1ccc(N)c(N)c1,n,25,?C
NC1=C(N)N=C(Cl)C=C1,"2,3-diamino-6-chloropyridine",3.02,Log unit,n1c(Cl)ccc(c1N)N,n,25,?C
NC1=CN=C(Cl)C=C1N,"4,5-diamino-2-chloropyridine",4.79,Log unit,n1c(Cl)cc(c(c1)N)N,n,25,?C
COC1=NC=C(Br)C=C1Br,"3,5-dibromo-2-methoxypyridine",-1.5,Log unit,n1cc(Br)cc(c1OC)Br,n,25,?C
CC(C)(C)C1=CC=CC(=N1)C(C)(C)C,"2,6-DI-T-BUTYLPYRIDINE",5.02,Log unit,n1c(cccc1C(C)(C)C)C(C)(C)C,n,25,?C
CC(C)(C)C1=CC(=CC(=N1)C(C)(C)C)S([O-])(=O)=O,"2,6-di-t-butyl-3-sulphopyridine",4.12,Log unit,n1c(cc(S(=O)(=O)[O-])cc1C(C)(C)C)C(C)(C)C,n,25,?C
OC(=O)C1[NH2+]CCCC1C([O-])=O,"2,3-dicarboxypyridine",2.43,Log unit,OC(=O)C1[NH2+][CH][CH][CH]C1C(=O)[O-],co2h,25,?C
[O-]C(=O)C1=C(N=CC=C1)C([O-])=O,"2,3-dicarboxypyridine",5.06,Log unit,n1cccc(c1C(=O)[O-])C(=O)[O-],n,25,?C
[O-]C(=O)C1=CN=C(C=C1)C([O-])=O,"2,3-dicarboxypyridine",5.12,Log unit,n1c(C(=O)[O-])ccc(C(=O)[O-])c1,n,25,?C
[O-]C(=O)C1=CC=CC(=N1)C([O-])=O,"2,6-Dicarboxypyridine",4.68,Log unit,n1c(cccc1C(=O)[O-])C(=O)[O-],n,25,?C
OC(=O)C1CCCC([NH2+]1)C([O-])=O,"2,6-Dicarboxypyridine",1.8,Log unit,OC(=O)C1[NH2+]C([CH][CH][CH]1)C(=O)[O-],co2h,25,?C
OC(=O)C1=CC=NC=C1C(O)=O,"3,4-dicarboxypyridine",2.93,Log unit,OC(=O)c1ccncc1C(=O)O,co2h,25,?C
[O-]C(=O)C1=CC=NC=C1C([O-])=O,"3,4-dicarboxypyridine",5.07,Log unit,n1ccc(C(=O)[O-])c(c1)C(=O)[O-],n,25,?C
OC(=O)C1C[NH2+]CC(C1)C(O)=O,"3,5-dicarboxypyridine",1.4,Log unit,OC(=O)C1[CH][NH2+][CH]C([CH]1)C(=O)O,co2h,25,?C
OC(=O)C1C[NH2+]CC(C1)C([O-])=O,"3,5-dicarboxypyridine",2.42,Log unit,OC(=O)C1[CH][NH2+][CH]C([CH]1)C(=O)[O-],co2h,25,?C
OC(=O)C1CC(Cl)CC([NH2+]1)C([O-])=O,"2,6-dicarboxy-4-chloropyridine",1.4,Log unit,OC(=O)C1[CH]C(Cl)[CH]C([NH2+]1)C(=O)[O-],co2h,25,?C
[O-]C(=O)C1=CC(Cl)=CC(=N1)C([O-])=O,"2,6-dicarboxy-4-chloropyridine",3.75,Log unit,n1c(cc(Cl)cc1C(=O)[O-])C(=O)[O-],n,25,?C