Smiles,Name,pKa,pKa Unit,Ionizable center smiles,IC group,Temperature,Temperature Unit
OC(=O)CCC1CCCCC1,3-CYCLOHEXYLPROPANOICACID,4.91,Log unit,OC(=O)CCC1CCCCC1,,,-
CCOC1=CC(O)=CC=C1,3-Ethoxyphenol,9.65,Log unit,Oc1cc(ccc1)OCC,,,-
CCC(CC(O)=O)CC(O)=O,3-ETHYLGLUTARICACID,4.28,Log unit,OC(=O)CC(CC(=O)O)CC,,,-
CCC(C(C)=O)C(C)=O,"3-Ethylpentane-2,4-dione",11.34,Log unit,C(C(=O)C)(C(=O)C)CC,,,-
CCC1=CC=CC(O)=C1,3-ethylphenol,10.07,Log unit,Oc1cc(ccc1)CC,,,-
OC(=O)C1=CC=CC(F)=C1,3-FLUOROBENZOICACID,3.87,Log unit,OC(=O)c1cc(ccc1)F,,,-
OC1=CC=CC(F)=C1,3-fluorophenol,9.29,Log unit,Oc1cc(ccc1)F,,,-
OC(=O)COC1=CC=CC(F)=C1,3-FLUOROPHENOXYACETICACID,3.08,Log unit,OC(=O)COc1cc(ccc1)F,,,-
CC\C=C\CC(O)=O,3-HEXENOICACID,4.72,Log unit,OC(=O)CC=CCC,,,-
COC1=CC=C(C=O)C=C1O,3-hydroxy-4-methoxybenzaldehyde,8.89,Log unit,Oc1cc(ccc1OC)C=O,,,-
OC1=CC=CC(C=O)=C1,3-hydroxybenzaldehyde,9,Log unit,Oc1cc(ccc1)C=O,,,-
OC(=O)C1=CC=CC(O)=C1,3-HYDROXYBENZOICACID,4.08,Log unit,OC(=O)c1cc(ccc1)O,,,-
CC1=CC=CC(O)=C1,3-hydroxytoluene,10.1,Log unit,Oc1cc(ccc1)C,,,-
OC(=O)C1=CC(I)=CC=C1,3-IODOBENZOICACID,3.86,Log unit,OC(=O)c1cccc(c1)I,,,-
OC1=CC(I)=CC=C1,3-iodophenol,8.88,Log unit,Oc1cc(ccc1)I,,,-
OC(=O)COC1=CC=CC(I)=C1,3-IODOPHENOXYACETICACID,3.13,Log unit,OC(=O)COc1cccc(c1)I,,,-
OC(=O)CC1=CC=CC(I)=C1,3-IODOPHENYLACETICACID,4.16,Log unit,OC(=O)Cc1cccc(c1)I,,,-
OC(=O)CCI,3-IODOPROPANOICACID,4.08,Log unit,OC(=O)CCI,,,-
CC(C)C(CC(O)=O)CC(O)=O,3-ISOPROPYLPENTANEDIOICACID,4.3,Log unit,OC(=O)CC(CC(=O)O)C(C)C,,,-
COC1=CC(=CC=C1)C(O)=O,3-METHOXYBENZOICACID,4.08,Log unit,OC(=O)c1cc(ccc1)OC,,,-
COC1=CC(O)=CC=C1,3-Methoxyphenol,9.65,Log unit,Oc1cccc(c1)OC,,,-
CC(C)=CC(O)=O,3-METHYL-2-BUTENOICACID,5.12,Log unit,OC(=O)C=C(C)C,,,-
CC1=CC=CC(=C1)C(O)=O,3-METHYLBENZOICACID,4.27,Log unit,OC(=O)c1cccc(c1)C,,,-
C[C@@H]1CCCC(CC(O)=O)(CC(O)=O)C1,"3-METHYLCYCLOHEXYL-1,1-DIACETICACID",3.49,Log unit,OC(=O)CC1(CC(CCC1)C)CC(=O)O,,,-
C[C@H]1CCC(CC(O)=O)(CC(O)=O)C1,"3-METHYLCYCLOPENTYL-1,1-DIACETICACID",3.79,Log unit,OC(=O)CC1(CC(CC1)C)CC(=O)O,,,-
CC(CC(O)=O)CC(O)=O,3-METHYLGLUTARICACID,4.24,Log unit,OC(=O)CC(CC(=O)O)C,,,-
CC(C(C)=O)C(C)=O,"3-Methylpentane-2,4-dione",10.87,Log unit,C(C)(C(=O)C)C(=O)C,,,-
CC[C@@H](C)CC(O)=O,3-METHYLPENTANOICACID,4.77,Log unit,OC(=O)CC(CC)C,,,-
CS(=O)(=O)C1=CC(=CC=C1)C(O)=O,3-METHYLSULFONYLBENZOICACID,3.52,Log unit,OC(=O)c1cc(ccc1)S(=O)(=O)C,,,-
CS(=O)(=O)C1=CC(O)=CC=C1,3-METHYLSULFONYLPHENOL,9.33,Log unit,Oc1cc(ccc1)S(=O)(=O)C,,,-
OC(=O)C1=CC=CC(=C1)N(=O)=O,3-Nitrobenzoicacid,3.46,Log unit,OC(=O)c1cc(ccc1)N(=O)=O,,,-
OC(=O)\C=C\C1=CC(=CC=C1)N(=O)=O,3-NITROCINNAMICACID,4.12,Log unit,OC(=O)C=Cc1cccc(c1)N(=O)=O,,,-
OC1=CC(=CC=C1)N(=O)=O,3-nitrophenol,8.36,Log unit,Oc1cc(ccc1)N(=O)=O,,,-
OC(=O)CC1=CC(=CC=C1)N(=O)=O,3-NITROPHENYLACETICACID,3.97,Log unit,OC(=O)Cc1cc(ccc1)N(=O)=O,,,-
C\C=C\CC(O)=O,3-PENTENOICACID,4.52,Log unit,OC(=O)CC=CC,,,-
OC(=O)C1=CC(OC2=CC=CC=C2)=CC=C1,3-PHENOXYBENZOICACID,3.95,Log unit,OC(=O)c1cccc(c1)Oc1ccccc1,,,-
O[C@H](CC(O)=O)C1=CC=CC=C1,3-PHENYL-3-HYDROXYPROPANOICACID,4.4,Log unit,OC(=O)CC(c1ccccc1)O,,,-
OC1=CC(=CC=C1)C1=CC=CC=C1,3-PHENYLPHENOL,9.63,Log unit,Oc1cc(ccc1)c1ccccc1,,,-
NS(=O)(=O)C1=CC=CC(=C1)C(O)=O,3-SULFAMYLBENZOICACID,3.54,Log unit,OC(=O)c1cccc(c1)S(=O)(=O)N,,,-
OC1=CC=CC(=C1)S(O)(=O)=O,3-SULFOPHENOL2,9.07,Log unit,Oc1cc(ccc1)S(=O)(=O)O,,,-
CC(C)(C)C1=CC=CC(=C1)C(O)=O,3-T-BUTYLBENZOICACID,4.2,Log unit,OC(=O)c1cccc(c1)C(C)(C)C,,,-
OC(=O)C1=CSC=C1,3-THIOPHENECARBOXYLICACID,4.1,Log unit,OC(=O)c1cscc1,,,-
OC1=CC(=CC=C1)C(F)(F)F,3-Trifluoromethylphenol,8.95,Log unit,Oc1cccc(c1)C(F)(F)F,,,-
CC(=O)C1=CC=C(O)C=C1,4'-Hydroxyacetophenone,8.05,Log unit,Oc1ccc(cc1)C(=O)C,,,-
COC1=CC=C(OCC(O)=O)C=C1,4'-METHOXYPHENOXYACETICACID,3.21,Log unit,OC(=O)COc1ccc(cc1)OC,,,-
COC1=CC=C(CC(O)=O)C=C1,4'-METHOXYPHENYLACETICACID,4.36,Log unit,OC(=O)Cc1ccc(cc1)OC,,,-
N[C@H](CC(F)(F)F)C(O)=O,"4,4,4-TRIFLUORO-2-AMINOBUTANOICACID1",1.6,Log unit,OC(=O)C(CC(F)(F)F)N,,,-
N[C@@H](CC(O)=O)C(F)(F)F,"4,4,4-TRIFLUORO-3-AMINOBUTANOICACID1",2.76,Log unit,OC(=O)CC(C(F)(F)F)N,,,-
OC(=O)CCC(F)(F)F,"4,4,4-TRIFLUOROBUTANOICACID",3.35,Log unit,OC(=O)CCC(F)(F)F,,,-
OC(=O)\C=C\C(F)(F)F,"4,4,4-TRIFLUOROCROTONICACID",3.15,Log unit,OC(=O)C=CC(F)(F)F,,,-
OC(=O)\C=C\C(F)(F)C(F)(F)C(F)(F)F,"4,4,5,5,6,6,6-HEPTAFLUORO-2-HEXENOICACID",3.23,Log unit,OC(=O)C=CC(F)(F)C(F)(C(F)(F)F)F,,,-
OC(=O)CCC(F)(F)C(F)(F)C(F)(F)F,"4,4,5,5,6,6,6-HEPTAFLUOROHEXANOICACID",4.18,Log unit,OC(=O)CCC(F)(F)C(F)(C(F)(F)F)F,,,-
OC(=O)CC1=CC=C(Br)C=C1,4-(BROMOPHENYL)ACETICACID,4.19,Log unit,OC(=O)Cc1ccc(cc1)Br,,,-
CSC1=CC=C(O)C=C1,4-(S-METHYLTHIO)PHENOL,9.53,Log unit,Oc1ccc(cc1)SC,,,-
CC(=O)NC1=CC=C(C=C1)C(O)=O,4-ACETAMIDOBENZOICACID,4.28,Log unit,OC(=O)c1ccc(NC(=O)C)cc1,,,-
CC(=O)OC1=CC=C(C=C1)C(O)=O,4-ACETOXYBENZOICACID,4.38,Log unit,OC(=O)c1ccc(OC(=O)C)cc1,,,-
CC(=O)C1=CC=C(C=C1)C(O)=O,4-ACETYLBENZOICACID,3.7,Log unit,OC(=O)c1ccc(C(=O)C)cc1,,,-
NC1=CC=C(C2=C1C=CC=C2)S(O)(=O)=O,4-AMINO-1-NAPHTHALENESULFONICACID,2.81,Log unit,Nc1ccc(c2ccccc12)S(=O)(=O)O,,,-
CC1=CC(N)=C(C)C=C1O,"4-AMINO-2,5-DIMETHYLPHENOL1",10.4,Log unit,Oc1cc(c(cc1C)N)C,,,-
NC1=CC(=CC2=C1C=CC=C2)C(O)=O,4-AMINO-2-NAPHTHOICACID1,4.46,Log unit,OC(=O)c1cc2ccccc2c(c1)N,,,-
CC1=C(N)C=CC(=C1)S(O)(=O)=O,4-AMINO-3-METHYLBENZENESULFONICACID,3.12,Log unit,Nc1ccc(S(=O)(=O)O)cc1C,,,-
NC1=CC=C(C=C1)S(O)(=O)=O,4-AMINOBENZENESULFONICACID,3.23,Log unit,Nc1ccc(cc1)S(=O)(=O)O,,,-
NC1=CC=C(C=C1)C(O)=O,4-AMINOBENZOICACID1,4.85,Log unit,OC(=O)c1ccc(cc1)N,,,-
NCCCC(O)=O,4-AMINOBUTANOICACID1,4.03,Log unit,OC(=O)CCCN,,,-
C[C@H](N)CCC(O)=O,4-AMINOPENTANOICACID1,3.97,Log unit,OC(=O)CCC(C)N,,,-
NC1=CC=C(C(O)=O)C(O)=C1,4-AMINOSALICYLICACID1,1.99,Log unit,Nc1cc(c(cc1)C(=O)O)O,,,-
OC(=O)C1=CC=C(Br)C=C1,4-BROMOBENZOICACID,3.99,Log unit,OC(=O)c1ccc(cc1)Br,,,-
OC1=CC=C(Br)C=C1,4-bromophenol,9.34,Log unit,Oc1ccc(cc1)Br,,,-
OC(=O)C1=C(C=C(Cl)C=C1)C(O)=O,"4-CHLORO-1,2-PHTHALICACID",1.6,Log unit,OC(=O)c1c(ccc(c1)Cl)C(=O)O,,,-
OC1=C(C=C(Cl)C=C1N(=O)=O)N(=O)=O,"4-CHLORO-2,6-DINITROPHENOL",2.97,Log unit,Oc1c(cc(cc1N(=O)=O)Cl)N(=O)=O,,,-
OC1=CC=C(Cl)C=C1N(=O)=O,4-chloro-2-nitrophenol,6.48,Log unit,Oc1c(cc(cc1)Cl)N(=O)=O,,,-
CC1=C(Cl)C=CC(O)=C1,4-Chloro-3-methylphenol,9.55,Log unit,Oc1ccc(c(C)c1)Cl,,,-
OC(=O)C1=CC=C(Cl)C=C1,4-CHLOROBENZOICACID,3.99,Log unit,OC(=O)c1ccc(cc1)Cl,,,-
OC(=O)CCCCl,4-CHLOROBUTANOICACID,4.5,Log unit,OC(=O)CCCCl,,,-
OC(=O)\C=C\C1=CC=C(Cl)C=C1,4-CHLOROCINNAMICACID,4.41,Log unit,OC(=O)C=Cc1ccc(cc1)Cl,,,-
OC1=CC=C(Cl)C=C1,4-Chlorophenol,9.43,Log unit,Oc1ccc(cc1)Cl,,,-
C[C@@H](OC1=CC=C(Cl)C=C1)C(O)=O,4-CHLOROPHENOXY-2-METHYLACETICACID,3.26,Log unit,OC(=O)C(Oc1ccc(cc1)Cl)C,,,-
OC(=O)COC1=CC=C(Cl)C=C1,4-CHLOROPHENOXYACETICACID,3.1,Log unit,OC(=O)COc1ccc(cc1)Cl,,,-
OC(=O)CC1=CC=C(Cl)C=C1,4-CHLOROPHENYLACETICACID,4.19,Log unit,OC(=O)Cc1ccc(cc1)Cl,,,-
SC1=CC=C(Cl)C=C1,4-Chlorothiophenol,5.9,Log unit,Sc1ccc(cc1)Cl,Thiophenol,,-
OC(=O)C1=CC=C(C=C1)C#N,4-CYANOBENZOICACID,3.55,Log unit,OC(=O)c1ccc(C#N)cc1,,,-
OC(=O)CCCC#N,4-CYANOBUTANOICACID,4.44,Log unit,OC(=O)CCCC#N,,,-
OC(=O)CCCC1CCCCC1,4-CYCLOHEXYLBUTANOICACID,4.95,Log unit,OC(=O)CCCC1CCCCC1,,,-
CCC1=CC=C(C=C1)C(O)=O,4-ETHYLBENZOICACID,4.35,Log unit,OC(=O)c1ccc(cc1)CC,,,-
CCC1=CC=C(O)C=C1,4-Ethylphenol,10,Log unit,Oc1ccc(cc1)CC,,,-
CCC1=CC=C(CC(O)=O)C=C1,4-ETHYLPHENYLACETICACID,4.37,Log unit,OC(=O)Cc1ccc(cc1)CC,,,-
OC(=O)C1=CC=C(F)C=C1,4-FLUOROBENZOICACID,4.14,Log unit,OC(=O)c1ccc(cc1)F,,,-
OC1=CC=C(F)C=C1,4-fluorophenol,9.89,Log unit,Oc1ccc(cc1)F,,,-
OC(=O)COC1=CC=C(F)C=C1,4-FLUOROPHENOXYACETICACID,3.13,Log unit,OC(=O)COc1ccc(cc1)F,,,-
OC(=O)CC1=CC=C(F)C=C1,4-FLUOROPHENYLACETICACID,4.25,Log unit,OC(=O)Cc1ccc(cc1)F,,,-
COC1=CC(C=O)=CC=C1O,4-Hydroxy-3-methoxybenzaldehyde,7.4,Log unit,Oc1c(cc(cc1)C=O)OC,,,-
COC1=CC(=CC=C1O)C(O)=O,4-HYDROXY-3-METHOXYBENZOICACID,4.36,Log unit,OC(=O)c1cc(c(cc1)O)OC,,,-
C[C@@H](I)C(O)=O,2-IODOPROPANOICACID,3.11,Log unit,OC(=O)C(C)I,,,-
CC(C)C1=CC=CC=C1C(O)=O,2-ISOPROPYLBENZOICACID,3.64,Log unit,OC(=O)c1c(cccc1)C(C)C,,,-
CC[C@@H](S)C(O)=O,2-MERCAPTOBUTANOICACID,3.53,Log unit,OC(=O)C(CC)S,,,-
OCCS,2-mercaptoethanol,9.88,Log unit,SCCO,,,-
NCCS,2-Mercaptoethylamine,8.27,Log unit,SCCN,,,-
C[C@H](S)C(O)=O,2-MERCAPTOPROPANOICACID,4.32,Log unit,OC(=O)C(C)S,,,-
COC1=CC(CC=C)=CC=C1O,2-Methoxy-4-(2-propenyl)phenol,10,Log unit,Oc1ccc(cc1OC)CC=C,,,-
COC1=CC=CC=C1C(O)=O,2-METHOXYBENZOICACID,4.09,Log unit,OC(=O)c1c(cccc1)OC,,,-
COC1=CC=CC=C1O,2-Methoxyphenol,9.99,Log unit,Oc1ccccc1OC,,,-
CC1=C(C(O)=O)C2=C(C=CC=C2)C=C1,2-METHYL-1-NAPHTHOICACID,3.11,Log unit,OC(=O)c1c(ccc2ccccc12)C,,,-
CCC(C)(C)S,2-METHYL-2-BUTANETHIOL,11.35,Log unit,SC(CC)(C)C,,,-
CC(C)(C)S,2-METHYL-2-PROPANETHIOL,11.2,Log unit,SC(C)(C)C,,,-
CC1=C(C=C(C=C1C(O)=O)N(=O)=O)N(=O)=O,"2-METHYL-3,5-DINITROBENZOICACID",2.97,Log unit,OC(=O)c1c(c(cc(c1)N(=O)=O)N(=O)=O)C,,,-
CC1=CC=CC(=C1C(O)=O)N(=O)=O,2-METHYL-6-NITROBENZOICACID,1.87,Log unit,OC(=O)c1c(cccc1N(=O)=O)C,,,-
CC1=C(C=CC=C1)C(O)=O,2-METHYLBENZOICACID,3.9,Log unit,OC(=O)c1ccccc1C,,,-
CC[C@@H](C)C(O)=O,2-METHYLBUTANOICACID,4.76,Log unit,OC(=O)C(CC)C,,,-
C[C@@H]1CCCCC1(CC(O)=O)CC(O)=O,"2-METHYLCYCLOHEXYL-1,1-DIACETICACID",3.53,Log unit,OC(=O)CC1(C(CCCC1)C)CC(=O)O,,,-
CCC[C@@H](C)C(O)=O,2-METHYLPENTANOICACID,4.78,Log unit,OC(=O)C(CCC)C,,,-
CC(C)C(O)=O,2-METHYLPROPANOICACID,4.85,Log unit,OC(=O)C(C)C,,,-
OC(=O)C1=CC2=C(C=CC=C2)C=C1,2-NAPHTHALENECARBOXYLICACID,4.16,Log unit,OC(=O)c1cc2ccccc2cc1,,,-
OC(=O)CC1=CC2=C(C=CC=C2)C=C1,2-NAPHTHYLACETICACID,4.26,Log unit,OC(=O)Cc1cc2ccccc2cc1,,,-
OC(=O)C1=CC=CC=C1N(=O)=O,2-nitrobenzoicacid,2.18,Log unit,OC(=O)c1c(cccc1)N(=O)=O,,,-
OC(=O)\C=C\C1=C(C=CC=C1)N(=O)=O,2-NITROCINNAMICACID,4.15,Log unit,OC(=O)C=Cc1ccccc1N(=O)=O,,,-
OC1=C(C=CC=C1)N(=O)=O,2-nitrophenol,7.22,Log unit,Oc1c(cccc1)N(=O)=O,,,-
OC(=O)CC1=C(C=CC=C1)N(=O)=O,2-NITROPHENYLACETICACID,4,Log unit,OC(=O)Cc1c(cccc1)N(=O)=O,,,-
CC(C)N(=O)=O,2-nitropropane,8.68,Log unit,C(C)(C)N(=O)=O,,,-
C[C@H](C(O)=O)N(=O)=O,2-NITROPROPANOICACID,2.79,Log unit,OC(=O)C(C)N(=O)=O,,,-
OC(=O)CC(=O)C(O)=O,2-OXOBUTANEDIOICACID,2.56,Log unit,OC(=O)C(=O)CC(=O)O,,,-
CCC(=O)C(O)=O,2-OXOBUTANOICACID,2.5,Log unit,OC(=O)C(=O)CC,,,-
CC(=O)C(O)=O,2-OXOPROPANOICACID,2.49,Log unit,OC(=O)C(=O)C,,,-
CC\C=C\C(O)=O,2-PENTENOICACID,4.7,Log unit,OC(=O)C=CCC,,,-
OC(=O)C1=C(OC2=CC=CC=C2)C=CC=C1,2-PHENOXYBENZOICACID,3.53,Log unit,OC(=O)c1ccccc1Oc1ccccc1,,,-
OC(=O)C[C@](CC1=CC=CC=C1)(C(O)=O)C1=CC=CC=C1,2-PHENYL-2-BENZYLSUCCINICACID,3.69,Log unit,OC(=O)C(CC(=O)O)(c1ccccc1)Cc1ccccc1,,,-
OC1=C(C=CC=C1)C1=CC=CC=C1,2-phenylphenol,9.55,Log unit,Oc1c(cccc1)c1ccccc1,,,-
C[C@H](C(O)=O)C1=CC=CC=C1,2-PHENYLPROPANOICACID,4.38,Log unit,OC(=O)C(C)c1ccccc1,,,-
C[C@H](C(O)=O)S(O)(=O)=O,2-SULFOPROPANOICACID,1.99,Log unit,OC(=O)C(C)S(=O)(=O)O,,,-
CC(C)(C)C1=C(C=CC=C1)C(O)=O,2-T-BUTYLBENZOICACID,3.57,Log unit,OC(=O)c1ccccc1C(C)(C)C,,,-
CC(=O)C1=CC(O)=CC=C1,3'-Hydroxyacetophenone,9.19,Log unit,Oc1cc(ccc1)C(=O)C,,,-
COC1=CC=CC(OCC(O)=O)=C1,3'-METHOXYPHENOXYACETICACID,3.14,Log unit,OC(=O)COc1cccc(c1)OC,,,-
O[C@H](C(O)=O)C(Cl)(Cl)Cl,"3,3,3-TRICHLOROLACTICACID",2.34,Log unit,OC(=O)C(C(Cl)(Cl)Cl)O,,,-
OC(=O)CC(F)(F)F,"3,3,3-TRIFLUOROPROPANOICACID",3.06,Log unit,OC(=O)CC(F)(F)F,,,-
OC(=O)C=C(F)F,"3,3-DIFLUOROACRYLICACID",3.17,Log unit,OC(=O)C=C(F)F,,,-
CC(C)(CC(O)=O)CC(O)=O,"3,3-DIMETHYLPENTANEDIOICACID",3.7,Log unit,OC(=O)CC(CC(=O)O)(C)C,,,-
OC(=O)CCC(CC(O)=O)(C1=CC=CC=C1)C1=CC=CC=C1,"3,3-DIPHENYLHEXANEDIOICACID",4.22,Log unit,OC(=O)CC(c1ccccc1)(c1ccccc1)CCC(=O)O,,,-
OC1=CC(Cl)=C(Cl)C(Cl)=C1,"3,4,5-TRICHLOROPHENOL",7.84,Log unit,Oc1cc(Cl)c(Cl)c(Cl)c1,,,-
OC(=O)C1=CC(O)=C(O)C(O)=C1,"3,4,5-TRIHYDROXYBENZOICACID",4.19,Log unit,OC(=O)c1cc(O)c(O)c(O)c1,,,-
CC1=CC(O)=CC(C)=C1C,"3,4,5-Trimethylphenol",10.25,Log unit,Oc1cc(C)c(C)c(C)c1,,,-
OC1=CC(Cl)=C(Cl)C=C1,"3,4-Dichlorophenol",8.63,Log unit,Oc1cc(c(cc1)Cl)Cl,,,-
OC(=O)C1=CC=C(O)C(O)=C1,"3,4-DIHYDROXYBENZOICACID",4.48,Log unit,OC(=O)c1cc(c(cc1)O)O,,,-
CC1=C(C)C2=C(N=C1)C(O)=CC=C2,"3,4-DIMETHYL-8-HYDROXYQUINOLINE",10.05,Log unit,Oc1cccc2c(c(cnc12)C)C,,,-
CC1=CC=C(C=C1C)C(O)=O,"3,4-DIMETHYLBENZOICACID",4.41,Log unit,OC(=O)c1cc(c(cc1)C)C,,,-
CC1=C(C)C=C(O)C=C1,"3,4-Dimethylphenol",10.32,Log unit,Oc1cc(c(cc1)C)C,,,-
OC(=O)C1=CC=C(C(=C1)N(=O)=O)N(=O)=O,"3,4-DINITROBENZOICACID",2.82,Log unit,OC(=O)c1cc(c(cc1)N(=O)=O)N(=O)=O,,,-
OC1=CC(=C(C=C1)N(=O)=O)N(=O)=O,"3,4-dinitrophenol",5.42,Log unit,Oc1cc(c(cc1)N(=O)=O)N(=O)=O,,,-
NC1=CC(=CC(N)=C1)C(O)=O,"3,5-DIAMINOBENZOICACID",5.3,Log unit,OC(=O)c1cc(cc(c1)N)N,,,-
OC1=CC(Br)=CC(Br)=C1,"3,5-DIBROMOPHENOL",8.06,Log unit,Oc1cc(cc(c1)Br)Br,,,-
OC1=CC(Cl)=CC(Cl)=C1,"3,5-Dichlorophenol",8.18,Log unit,Oc1cc(cc(c1)Cl)Cl,,,-
CCOC1=CC(OCC)=CC(O)=C1,"3,5-DIETHOXYPHENOL",9.37,Log unit,Oc1cc(cc(c1)OCC)OCC,,,-
OC(=O)C1=CC(O)=CC(O)=C1,"3,5-DIHYDROXYBENZOICACID",4.04,Log unit,OC(=O)c1cc(cc(c1)O)O,,,-
OC1=CC(I)=CC(I)=C1,"3,5-DIIODOPHENOL",8.1,Log unit,Oc1cc(cc(c1)I)I,,,-
COC1=CC(OC)=CC(O)=C1,"3,5-Dimethoxyphenol",9.35,Log unit,Oc1cc(cc(c1)OC)OC,,,-
CC1=CC(O)=CC(C)=C1C#N,"3,5-DIMETHYL-4-CYANOPHENOL",8.21,Log unit,Oc1cc(c(c(c1)C)C#N)C,,,-
CC1=CC(O)=CC(C)=C1N(=O)=O,"3,5-DIMETHYL-4-NITROPHENOL",8.24,Log unit,Oc1cc(c(c(c1)C)N(=O)=O)C,,,-
CC1=CC(=CC(C)=C1)C(O)=O,"3,5-DIMETHYLBENZOICACID",4.3,Log unit,OC(=O)c1cc(cc(c1)C)C,,,-
CC1=CC(O)=CC(C)=C1,"3,5-Dimethylphenol",10.15,Log unit,Oc1cc(cc(c1)C)C,,,-
OC(=O)C1=CC(=CC(=C1)N(=O)=O)N(=O)=O,"3,5-DINITROBENZOICACID",2.85,Log unit,OC(=O)c1cc(cc(c1)N(=O)=O)N(=O)=O,,,-
OC1=CC(=CC(=C1)N(=O)=O)N(=O)=O,"3,5-Dinitrophenol",6.73,Log unit,Oc1cc(cc(c1)N(=O)=O)N(=O)=O,,,-
OC(=O)C1=C(C(O)=O)C(Cl)=CC=C1Cl,"3,6-DICHLOROPHTHALICACID",1.46,Log unit,OC(=O)c1c(ccc(c1C(=O)O)Cl)Cl,,,-
OC(=O)CCC1=CC=CC=C1Cl,3-(2'-CHLOROPHENYL)PROPANOICACID,4.58,Log unit,OC(=O)CCc1ccccc1Cl,,,-
COC1=CC=CC=C1CCC(O)=O,3-(2'-METHOXYPHENYL)PROPANOICACID,4.8,Log unit,OC(=O)CCc1c(cccc1)OC,,,-
OC(=O)CCC1=CC=CC=C1N(=O)=O,3-(2'-NITROPHENYL)PROPANOICACID,4.5,Log unit,OC(=O)CCc1ccccc1N(=O)=O,,,-
CC1=C(CCC(O)=O)C=CC=C1,3-(2-METHYLPHENYL)PROPANOICACID,4.66,Log unit,OC(=O)CCc1c(cccc1)C,,,-
OC(=O)CCC1=CC=CC(Cl)=C1,3-(3'-CHLOROPHENYL)PROPANOICACID,4.59,Log unit,OC(=O)CCc1cccc(c1)Cl,,,-
COC1=CC(CCC(O)=O)=CC=C1,3-(3'-METHOXYPHENYL)PROPANOICACID,4.65,Log unit,OC(=O)CCc1cc(ccc1)OC,,,-
CC1=CC=CC(CCC(O)=O)=C1,3-(3-METHYLPHENYL)PROPANOICACID,4.68,Log unit,OC(=O)CCc1cc(ccc1)C,,,-
OC(=O)CCC1=CC=C(Cl)C=C1,3-(4'-CHLOROPHENYL)PROPANOICACID,4.61,Log unit,OC(=O)CCc1ccc(cc1)Cl,,,-
COC1=CC=C(CCC(O)=O)C=C1,3-(4'-METHOXYPHENYL)PROPANOICACID,4.69,Log unit,OC(=O)CCc1ccc(cc1)OC,,,-
OC(=O)CCC1=CC=C(C=C1)N(=O)=O,3-(4'-NITROPHENYL)PROPANOICACID,4.47,Log unit,OC(=O)CCc1ccc(cc1)N(=O)=O,,,-
CC1=CC=C(CCC(O)=O)C=C1,3-(4-METHYLPHENYL)PROPANOICACID,4.68,Log unit,OC(=O)CCc1ccc(cc1)C,,,-
OC(=O)CCSCC1=CC=CC=C1,3-(BENZYLTHIO)PROPANOICACID,4.46,Log unit,OC(=O)CCSCc1ccccc1,,,-
CSC1=CC=CC(O)=C1,3-(S-METHYLTHIO)PHENOL,9.53,Log unit,Oc1cc(ccc1)SC,,,-
CC(=O)NC1=CC=CC(=C1)C(O)=O,3-ACETAMIDOBENZOICACID,4.07,Log unit,OC(=O)c1cc(NC(=O)C)ccc1,,,-
CC(=O)OC1=CC(=CC=C1)C(O)=O,3-ACETOXYBENZOICACID,4,Log unit,OC(=O)c1cccc(OC(=O)C)c1,,,-
CC(=O)C1=CC=CC(=C1)C(O)=O,3-ACETYLBENZOICACID,3.83,Log unit,OC(=O)c1cc(C(=O)C)ccc1,,,-
NC1=CC2=C(C=CC=C2)C(=C1)C(O)=O,3-AMINO-1-NAPHTHOICACID1,4.39,Log unit,OC(=O)c1cc(cc2ccccc12)N,,,-
CC1=C(N)C=C(C=C1)S(O)(=O)=O,3-AMINO-4-METHYLBENZENESULFONICACID,3.63,Log unit,Nc1c(ccc(S(=O)(=O)O)c1)C,,,-
NC1=CC(=CC=C1)S(O)(=O)=O,3-AMINOBENZENESULFONICACID,3.74,Log unit,Nc1cccc(c1)S(=O)(=O)O,,,-
NC1=CC(=CC=C1)C(O)=O,3-AMINOBENZOICACID1,4.79,Log unit,OC(=O)c1cccc(c1)N,,,-
CC[C@H](N)CC(O)=O,3-AMINOPENTANOICACID1,4.02,Log unit,OC(=O)CC(CC)N,,,-
NCCC(O)=O,3-AMINOPROPANOICACID1,3.55,Log unit,OC(=O)CCN,,,-
FC(F)(F)C(=O)CC(=O)C1=CC=CC=C1,"3-Benzoyl-1,1,1-trifluoroacetone",6.35,Log unit,C(C(=O)C(F)(F)F)C(=O)c1ccccc1,,,-
OC(=O)C1=CC(Br)=CC=C1,3-BROMOBENZOICACID,3.81,Log unit,OC(=O)c1cccc(c1)Br,,,-
OC1=CC=CC(Br)=C1,3-Bromophenol,9.03,Log unit,Oc1cccc(c1)Br,,,-
OC(=O)CCBr,3-BROMOPROPANOICACID,3.99,Log unit,OC(=O)CCBr,,,-
OC(=O)CC=C,3-BUTENOICACID,4.68,Log unit,OC(=O)CC=C,,,-
OC(=O)C1=CC=CC(Cl)=C1,3-CHLOROBENZOICACID,3.83,Log unit,OC(=O)c1cc(ccc1)Cl,,,-
C[C@@H](Cl)CC(O)=O,3-CHLOROBUTANOICACID,4.05,Log unit,OC(=O)CC(C)Cl,,,-
OC(=O)\C=C\C1=CC(Cl)=CC=C1,3-CHLOROCINNAMICACID,4.29,Log unit,OC(=O)C=Cc1cccc(c1)Cl,,,-
C\C(Cl)=C\C(O)=O,3-CHLOROCROTONICACID,3.84,Log unit,OC(=O)C=C(C)Cl,,,-
O[C@H](CCl)C(O)=O,3-CHLOROLACTICACID,3.12,Log unit,OC(=O)C(CCl)O,,,-
COC1=CC=CC(OC)=C1C(O)=O,"2,6-DIMETHOXYBENZOICACID",3.44,Log unit,OC(=O)c1c(cccc1OC)OC,,,-
CC1=CC(=CC(C)=C1O)C#N,"2,6-DIMETHYL-4-CYANOPHENOL",8.27,Log unit,Oc1c(cc(cc1C)C#N)C,,,-
CC1=CC(=CC(C)=C1O)N(=O)=O,"2,6-DIMETHYL-4-NITROPHENOL",7.19,Log unit,Oc1c(cc(cc1C)N(=O)=O)C,,,-
CC1=CC=CC(C)=C1C(O)=O,"2,6-DIMETHYLBENZOICACID",3.36,Log unit,OC(=O)c1c(cccc1C)C,,,-
CC1=CC=CC(C)=C1O,"2,6-Dimethylphenol",10.59,Log unit,Oc1c(cccc1C)C,,,-
CC1=CC=CC(C)=C1OCC(O)=O,"2,6-DIMETHYLPHENOXYACETICACID",3.36,Log unit,OC(=O)COc1c(cccc1C)C,,,-
OC(=O)C1=C(C=CC=C1N(=O)=O)N(=O)=O,"2,6-DINITROBENZOICACID",1.14,Log unit,OC(=O)c1c(cccc1N(=O)=O)N(=O)=O,,,-
OC1=C(C=CC=C1N(=O)=O)N(=O)=O,"2,6-Dinitrophenol",3.71,Log unit,Oc1c(cccc1N(=O)=O)N(=O)=O,,,-
OC(=O)COC1=C(Br)C=CC=C1,2-(2'-BROMOPHENOXY)ACETICACID,3.12,Log unit,OC(=O)COc1ccccc1Br,,,-
OC(=O)COC1=CC(Br)=CC=C1,2-(3'-BROMOPHENOXY)ACETICACID,3.09,Log unit,OC(=O)COc1cccc(c1)Br,,,-
OC(=O)COC1=CC=C(Br)C=C1,2-(4'-BROMOPHENOXY)ACETICACID,3.13,Log unit,OC(=O)COc1ccc(cc1)Br,,,-
CC[C@@H](NC(C)=O)C(O)=O,2-(ACETAMIDO)BUTANOICACID,3.72,Log unit,OC(=O)C(NC(=O)C)CC,,,-
OC(=O)CC1=CC=CC=C1Br,2-(BROMOPHENYL)ACETICACID,4.05,Log unit,OC(=O)Cc1c(cccc1)Br,,,-
CC(=O)NC1=C(C=CC=C1)C(O)=O,2-ACETAMIDOBENZOICACID,3.63,Log unit,OC(=O)c1c(NC(=O)C)cccc1,,,-
CC(=O)OC1=CC=CC=C1C(O)=O,2-ACETOXYBENZOICACID,3.48,Log unit,OC(=O)c1ccccc1OC(=O)C,,,-
CC(=O)C1=C(C=CC=C1)C(O)=O,2-ACETYLBENZOICACID,4.13,Log unit,OC(=O)c1c(C(=O)C)cccc1,,,-
CC(=O)[C@@H]1CCCCC1=O,2-acetylcyclohexanone,11.1,Log unit,C1(CCCCC1=O)C(=O)C,,,-
OC1=CC=CC=C1CC=C,2-allylphenol,10.28,Log unit,Oc1c(cccc1)CC=C,,,-
C[C@@H](CC=C)C(O)=O,2-ALLYLPROPIONICACID,4.72,Log unit,OC(=O)C(CC=C)C,,,-
N[C@@H]1CCCC[C@@H]1C(O)=O,2-AMINO-1-CYCLOHEXANECARBOXYLICACID1,3.56,Log unit,OC(=O)C1C(CCCC1)N,,,-
NC1=C(C2=C(C=CC=C2)C=C1)S(O)(=O)=O,2-AMINO-1-NAPHTHALENESULFONICACID,2.35,Log unit,Nc1ccc2ccccc2c1S(=O)(=O)O,,,-
CC(C)(N)C(O)=O,2-AMINO-2-METHYLPROPANOICACID1,2.36,Log unit,OC(=O)C(C)(C)N,,,-
NC1=C(C=CC=C1O)C(O)=O,2-AMINO-3-HYDROXYBENZOICACID1,1.99,Log unit,OC(=O)c1c(c(ccc1)O)N,,,-
NC1=C(C=CC=C1O)C(O)=O,2-AMINO-3-HYDROXYBENZOICACID3,10.12,Log unit,Oc1c(c(ccc1)C(=O)O)N,,,-
C[C@@H](O)[C@@H](N)C(O)=O,2-AMINO-3-HYDROXYBUTANOICACID1,2.09,Log unit,OC(=O)C(C(C)O)N,,,-
CC(C)(S)[C@@H](N)C(O)=O,2-AMINO-3-MERCAPTO-3-METHYLBUTANOICACID1,1.8,Log unit,OC(=O)C(C(C)(S)C)N,,,-
CC(C)(S)[C@@H](N)C(O)=O,2-AMINO-3-MERCAPTO-3-METHYLBUTANOICACID3,7.9,Log unit,NC(C(C)(S)C)C(=O)O,,,-
N[C@H](CCS)C(O)=O,2-AMINO-4-MERCAPTOBUTANOICACID1,2.22,Log unit,OC(=O)C(CCS)N,,,-
N[C@H](CCS)C(O)=O,2-AMINO-4-MERCAPTOBUTANOICACID3,8.87,Log unit,NC(CCS)C(=O)O,,,-
NC1=CC2=C(C=CC=C2)C(=C1)S(O)(=O)=O,2-AMINO-4-NAPHTHALENESULFONICACID,3.7,Log unit,Nc1cc(c2ccccc2c1)S(=O)(=O)O,,,-
NC1=CC2=C(C=C1)C=C(C=C2)S(O)(=O)=O,2-AMINO-6-NAPHTHALENESULFONICACID,3.79,Log unit,Nc1ccc2cc(ccc2c1)S(=O)(=O)O,,,-
NC1=CC2=C(C=CC=C2S(O)(=O)=O)C=C1,2-AMINO-8-NAPHTHALENESULFONICACID,3.89,Log unit,Nc1ccc2cccc(c2c1)S(=O)(=O)O,,,-
CC(C)(NC(N)=O)C(O)=O,2-AMINO-N-CARBAMOYL-2-METHYLPROPANOICACID,4.46,Log unit,OC(=O)C(C)(NC(=O)N)C,,,-
CC[C@@H](NC(=O)CN)C(O)=O,2-AMINO-N-GLYCYLBUTANOICACID1,3.15,Log unit,OC(=O)C(CC)NC(=O)CN,,,-
NC1=CC=CC=C1S(O)(=O)=O,2-AMINOBENZENESULFONICACID,2.46,Log unit,Nc1c(cccc1)S(=O)(=O)O,,,-
NC1=CC=CC=C1C(O)=O,2-AMINOBENZOICACID1,2.09,Log unit,Nc1c(cccc1)C(=O)O,,,-
CC[C@@H](N)C(O)=O,2-AMINOBUTANOICACID1,2.29,Log unit,OC(=O)C(CC)N,,,-
NCCS(O)(=O)=O,2-AMINOETHANESULFONICACID1,1.5,Log unit,OS(=O)(=O)CCN,,,-
CCCC[C@@H](N)C(O)=O,2-AMINOHEXANOICACID1,2.34,Log unit,OC(=O)C(CCCC)N,,,-
CCC[C@@H](N)C(O)=O,2-AMINOPENTANOICACID1,2.32,Log unit,OC(=O)C(CCC)N,,,-
NC1=CC=CC=C1S,2-Aminothiophenol,7.9,Log unit,Sc1ccccc1N,Thiophenol,,-
OC(=O)C1=CC=CC=C1C(=O)C1=CC=CC=C1,2-BENZOYLBENZOICACID,3.54,Log unit,OC(=O)c1c(cccc1)C(=O)c1ccccc1,,,-