Smiles,Name,pKa,pKa Unit,Ionizable center smiles,IC group,Temperature,Temperature Unit
COC1=CC=C(C=CC(O)=O)C=C1,p-methoxy-cinnamic acid,4.54,Log unit,OC(=O)C=Cc1ccc(cc1)OC,,25,?C
OC(=O)CCSCC1=CC=CC=C1,beta-(benzylthio)propionic acid,4.46,Log unit,OC(=O)CCSCc1ccccc1,,25,?C
OC(=O)CSCCC1=CC=CC=C1,PHENETHYLTHIOACETIC ACID,3.79,Log unit,OC(=O)CSCCc1ccccc1,,25,?C
OC(C(O)=O)C1=CC(F)=CC=C1,meta-fluoro-mandelic acid,4.24,Log unit,OC(=O)C(c1cc(F)ccc1)O,,25,?C
OC(C(O)=O)C1=CC(Cl)=CC=C1,m-chloro-mandelic acid,3.24,Log unit,OC(=O)C(c1cc(Cl)ccc1)O,,25,?C
OC(C(O)=O)C1=CC(Br)=CC=C1,m-bromo-mandelic acid,3.23,Log unit,OC(=O)C(c1cc(Br)ccc1)O,,25,?C
OC(C(O)=O)C1=CC(I)=CC=C1,m-iodo-mandelic acid,3.26,Log unit,OC(=O)C(c1cc(I)ccc1)O,,25,?C
[NH3+]C(CC1=CC=CC=C1F)C(O)=O,o-Fluorophenylalanine,2.12,Log unit,OC(=O)C(Cc1c(F)cccc1)[NH3+],,25,?C
NC(CC1=CC=CC=C1F)C([O-])=O,o-Fluorophenylalanine,9.01,Log unit,NC(Cc1c(F)cccc1)C(=O)[O-],,25,?C
[NH3+]C(CC1=CC(F)=CC=C1)C(O)=O,m-Fluorophenylalanine,2.1,Log unit,OC(=O)C(Cc1cc(F)ccc1)[NH3+],,25,?C
NC(CC1=CC(F)=CC=C1)C([O-])=O,m-Fluorophenylalanine,8.98,Log unit,NC(Cc1cc(F)ccc1)C(=O)[O-],,25,?C
[NH3+]C(CC1=CC=C(F)C=C1)C(O)=O,p=fluorophenylalanine,2.13,Log unit,OC(=O)C(Cc1ccc(F)cc1)[NH3+],,25,?C
NC(CC1=CC=C(F)C=C1)C([O-])=O,p-Fluorophenylalanine,9.05,Log unit,NC(Cc1ccc(F)cc1)C(=O)[O-],,25,?C
[NH3+]C(CC1=CC=CC=C1Cl)C(O)=O,O-Chlorophenylalanine,2.23,Log unit,OC(=O)C(Cc1c(Cl)cccc1)[NH3+],,25,?C
NC(CC1=CC=CC=C1Cl)C([O-])=O,O-Chlorophenylalanine,8.94,Log unit,NC(Cc1c(Cl)cccc1)C(=O)[O-],,25,?C
[NH3+]C(CC1=CC(Cl)=CC=C1)C(O)=O,m-chlorophenylalanine,2.17,Log unit,OC(=O)C(Cc1cc(Cl)ccc1)[NH3+],,25,?C
NC(CC1=CC(Cl)=CC=C1)C([O-])=O,m-chlorophenylalanine,8.91,Log unit,NC(Cc1cc(Cl)ccc1)C(=O)[O-],,25,?C
[NH3+]C(CC1=CC=C(Cl)C=C1)C(O)=O,P-CHLOROPHENYLALANINE,2.08,Log unit,OC(=O)C(Cc1ccc(Cl)cc1)[NH3+],,25,?C
NC(CC1=CC=C(Cl)C=C1)C([O-])=O,P-CHLOROPHENYLALANINE,8.96,Log unit,NC(Cc1ccc(Cl)cc1)C(=O)[O-],,25,?C
[NH3+]C(CC1=CC=C(O)C=C1)C([O-])=O,tyrosin,10.1,Log unit,Oc1ccc(CC([NH3+])C(=O)[O-])cc1,,25,?C
NC(CC1=CC=C([O-])C=C1)C([O-])=O,tyrosin,10.1,Log unit,NC(Cc1ccc([O-])cc1)C(=O)[O-],,25,?C
[NH3+]C(CC1=CC=C(O)C(O)=C1)C(O)=O,"3,4-Dihydroxyphenylalanine",2.32,Log unit,OC(=O)C(Cc1ccc(O)c(O)c1)[NH3+],,25,?C
NC(CC1=CC=C([O-])C(O)=C1)C([O-])=O,"3,4-Dihydroxyphenylalanine",9.9,Log unit,NC(Cc1ccc([O-])c(O)c1)C(=O)[O-],,25,?C
[NH3+]C(CC1=CC(I)=C(O)C(I)=C1)C(O)=O,Diiodotyrosine,2.115,Log unit,OC(=O)C(Cc1cc(I)c(O)c(c1)I)[NH3+],,25,?C
[NH3+]C(CC1=CC(I)=C(O)C(I)=C1)C([O-])=O,Diiodotyrosine,6.5,Log unit,Oc1c(I)cc(cc1I)CC([NH3+])C(=O)[O-],,25,?C
OC(=O)CCC(=O)C1=CC=CC2=CC=CC=C12,beta-(1-naphthoyl)-propionic acid,4.48,Log unit,OC(=O)CCC(=O)c1c2ccccc2ccc1,,25,?C
OC(=O)CCC(=O)C1=CC2=CC=CC=C2C=C1,beta-(2-naphthoyl)-propionic acid,4.96,Log unit,OC(=O)CCC(=O)c1cc2ccccc2cc1,,25,?C
COC(=O)C(CC(O)=O)(C1=CC=CC=C1)C1=CC=CC=C1,"alpha,alpha-diphenyl-succinic acid-alpha-methylhalfester",4.47,Log unit,OC(=O)CC(c1ccccc1)(c1ccccc1)C(=O)OC,,25,?C
COC(=O)CC(C(O)=O)(C1=CC=CC=C1)C1=CC=CC=C1,"alpha,alpha-diphenyl-succinic acid-beta-methylhalfester",3.9,Log unit,OC(=O)C(c1ccccc1)(c1ccccc1)CC(=O)OC,,25,?C
COC(=O)C(CCC(O)=O)(C1=CC=CC=C1)C1=CC=CC=C1,"alpha,alpha-diphenyl-glutaric acid-alpha-methylhalfester",4.66,Log unit,OC(=O)CCC(c1ccccc1)(c1ccccc1)C(=O)OC,,25,?C
COC(=O)CCC(C(O)=O)(C1=CC=CC=C1)C1=CC=CC=C1,"alpha,alpha-diphenyl-glutaric acid-gamma-methylhalfester",4,Log unit,OC(=O)C(c1ccccc1)(c1ccccc1)CCC(=O)OC,,25,?C
COC(=O)C(CCCC(O)=O)(C1=CC=CC=C1)C1=CC=CC=C1,"alpha,alpha-diphenyl-adipic acid-alpha-methylhalfester",4.84,Log unit,OC(=O)CCCC(c1ccccc1)(c1ccccc1)C(=O)OC,,25,?C
COC(=O)CCCC(C(O)=O)(C1=CC=CC=C1)C1=CC=CC=C1,"alpha,alpha-diphenyl-adipic acid-delta-methylhalfester",4.26,Log unit,OC(=O)C(c1ccccc1)(c1ccccc1)CCCC(=O)OC,,25,?C
COC(=O)C(CCCCC(O)=O)(C1=CC=CC=C1)C1=CC=CC=C1,"alpha,alpha-diphenylpimelic acid-alpha-methylhalfester",5,Log unit,OC(=O)CCCCC(c1ccccc1)(c1ccccc1)C(=O)OC,,25,?C
COC(=O)CCCCC(C(O)=O)(C1=CC=CC=C1)C1=CC=CC=C1,"alpha,alpha-diphenylpimelic acid-epsilon-methylhalfester",4.4,Log unit,OC(=O)C(c1ccccc1)(c1ccccc1)CCCCC(=O)OC,,25,?C
COC(=O)C(CCCCCC(O)=O)(C1=CC=CC=C1)C1=CC=CC=C1,"alpha,alpha-diphenylsuberic acid-alpha-methylhalfester",5.08,Log unit,OC(=O)CCCCCC(c1ccccc1)(c1ccccc1)C(=O)OC,,25,?C
COC(=O)CCCCCC(C(O)=O)(C1=CC=CC=C1)C1=CC=CC=C1,"alpha,alpha-diphenylsuberic acid-omega-methylhalfester",4.5,Log unit,OC(=O)C(c1ccccc1)(c1ccccc1)CCCCCC(=O)OC,,25,?C
COC(=O)C(CC(O)=O)C1=CC=CC=C1,alpha-phenylsuccinic acid-alpha-methylhalfester,4.35,Log unit,OC(=O)CC(c1ccccc1)C(=O)OC,,25,?C
COC(=O)CC(C(O)=O)C1=CC=CC=C1,alpha-phenylsuccinic acid-beta-methylhalfester,4.05,Log unit,OC(=O)C(c1ccccc1)CC(=O)OC,,25,?C
COC(=O)C(CC(O)=O)(CC1=CC=CC=C1)C1=CC=CC=C1,alpha-phenyl-alpha-benzylsuccinic acid-alpha-methylhalfester,4.46,Log unit,OC(=O)CC(Cc1ccccc1)(c1ccccc1)C(=O)OC,,25,?C
COC(=O)CC(CC1=CC=CC=C1)(C(O)=O)C1=CC=CC=C1,alpha-phenyl-alpha-benzylsuccinic acid-beta-methylhalfester,4.06,Log unit,OC(=O)C(Cc1ccccc1)(c1ccccc1)CC(=O)OC,,25,?C
COC(=O)C(CC(O)=O)(CC1=CC=CC=C1)CC1=CC=CC=C1,"alpha,alpha-dibenzylsuccinic acid-alpha-methylhalfester",4.66,Log unit,OC(=O)CC(Cc1ccccc1)(C(=O)OC)Cc1ccccc1,,25,?C
COC(=O)CC(CC1=CC=CC=C1)(CC1=CC=CC=C1)C(O)=O,"alpha,alpha-dibenzylsuccinic acid-beta-methylhalfester",4.48,Log unit,OC(=O)C(Cc1ccccc1)(Cc1ccccc1)CC(=O)OC,,25,?C
OC(=O)C1=CC=C(Cl)C(Cl)=C1,"3,4-dichloro-benzoic acid",3.64,Log unit,OC(=O)c1ccc(Cl)c(Cl)c1,,25,?C
OC(=O)C1=CC(Cl)=CC(Cl)=C1,"3,5-dichloro-benzoic acid",3.54,Log unit,OC(=O)c1cc(Cl)cc(Cl)c1,,25,?C
OC(=O)C1=C(F)C(F)=C(F)C(F)=C1F,pentafluoro-benzoic acid,1.75,Log unit,OC(=O)c1c(c(c(F)c(F)c1F)F)F,,25,?C
OC(=O)C1=C(F)C(F)=CC(F)=C1F,"2,3,5,6-tetrafluoro-benzoic acid",1.87,Log unit,OC(=O)c1c(c(F)cc(F)c1F)F,,25,?C
CC1=C(F)C(F)=C(C(O)=O)C(F)=C1F,"2,3,5,6-Tetrafluoro-4-methylbenzoic acid",2,Log unit,OC(=O)c1c(c(F)c(C)c(F)c1F)F,,25,?C
OC(=O)C1=C(F)C(F)=C(O)C(F)=C1F,"2,3,5,6-tetrafluoro-4-hydroxy-benzoic acid",2.27,Log unit,OC(=O)c1c(c(F)c(O)c(F)c1F)F,,25,?C
OC(=O)C1=C(Cl)C(Cl)=CC=C1,"2,3-dichloro-benzoic acid",2.67,Log unit,OC(=O)c1c(c(Cl)ccc1)Cl,,25,?C
OC(=O)C1=C(Cl)C=C(Cl)C=C1,"2,4-dichloro-benzoic acid",2.755,Log unit,OC(=O)c1c(cc(Cl)cc1)Cl,,25,?C
OC(=O)C1=CC(Cl)=CC=C1Cl,"2,5-dichloro-benzoic acid",2.466,Log unit,OC(=O)c1cc(Cl)ccc1Cl,,25,?C
OC(=O)C1=C(Cl)C=CC=C1Cl,"2,6-dichloro-benzoic acid",1.705,Log unit,OC(=O)c1c(Cl)cccc1Cl,,25,?C
OC1=C(C#N)C(=CC=C1)N(=O)=O,2-hydroxy-6-nitro-benzenecarbonitrile,5.2,Log unit,Oc1cccc(c1C#N)N(=O)=O,,25,?C
OC(=O)C1=CC(Cl)=CC(Cl)=C1O,"3,5-dichloro-2-hydroxy-benzoic acid",2.204,Log unit,OC(=O)c1cc(Cl)cc(Cl)c1O,,25,?C
OC(=O)C1=CC(Br)=CC(Br)=C1O,"3,5-dibromo-2-hydroxy-benzoic acid",2.162,Log unit,OC(=O)c1cc(Br)cc(Br)c1O,,25,?C
OC(=O)C1=CC(I)=CC(I)=C1O,"2-HYDROXY-3,5-DIIODO-BENZOIC ACID",2.299,Log unit,OC(=O)c1cc(I)cc(I)c1O,,25,?C
OC(=O)C1=CC=C(I)C=C1,4-Iodo-benzoic acid,3.9635,Log unit,OC(=O)c1ccc(I)cc1,,25,?C
OC(=O)C1=C(O)C=CC=C1Cl,2-chloro-6-hydroxy-benzoic acid,2.63,Log unit,OC(=O)c1c(Cl)cccc1O,,25,?C
OC(=O)C1=CC(Cl)=CC=C1O,5-chloro-2-hydroxy-benzoic acid,2.675,Log unit,OC(=O)c1cc(Cl)ccc1O,,25,?C
OC1=CC=C(Cl)C=C1C([O-])=O,5-chloro-2-hydroxy-benzoic acid,13,Log unit,Oc1ccc(Cl)cc1C(=O)[O-],,25,?C
OC(=O)C1=C(O)C(Br)=CC=C1,3-bromo-2-hydroxy-benzoic acid,2.516,Log unit,OC(=O)c1c(c(Br)ccc1)O,,25,?C
OC(=O)C1=CC(Br)=CC=C1O,5-bromo-2-hydroxy-benzoic acid,2.6435,Log unit,OC(=O)c1cc(Br)ccc1O,,25,?C
OC1=CC=C(Br)C=C1C([O-])=O,5-bromo-2-hydroxy-benzoic acid,12.8,Log unit,Oc1ccc(Br)cc1C(=O)[O-],,25,?C
OC(=O)C1=CC=C(Br)C=C1O,4-bromo-2-hydroxy-benzoic acid,2.669,Log unit,OC(=O)c1ccc(Br)cc1O,,25,?C
OC(=O)C1=C(O)C(I)=CC=C1,2-hydroxy-3-iodo-benzoic acid,2.52,Log unit,OC(=O)c1c(c(I)ccc1)O,,25,?C
OC(=O)C1=CC=C(I)C=C1O,2-hydroxy-4-iodo-benzoic acid,2.75,Log unit,OC(=O)c1ccc(I)cc1O,,25,?C
OC(=O)C1=CC(I)=CC=C1O,2-HYDROXY-5-IODO-BENZOIC ACID,2.6595,Log unit,OC(=O)c1cc(I)ccc1O,,25,?C
OC(=O)C1=CC=C(C=C1O)N(=O)=O,2-hydroxy-4-nitro-benzoic acid,2.27,Log unit,OC(=O)c1c(O)cc(cc1)N(=O)=O,,25,?C
OC(=O)C1=CC(=CC=C1O)N(=O)=O,2-hydroxy-5-nitro-benzoic acid,2.11,Log unit,OC(=O)c1c(O)ccc(N(=O)=O)c1,,25,?C
OC(=O)C1=C(O)C=CC=C1N(=O)=O,2-hydroxy-6-nitro-benzoic acid,2.24,Log unit,OC(=O)c1c(cccc1N(=O)=O)O,,25,?C
OC(=O)C1=CC=CC(C=O)=C1,3-formyl-benzoic acid,3.84,Log unit,OC(=O)c1cccc(c1)C=O,,25,?C
OC(=O)C1=CC=C(C=O)C=C1,4-Formyl-benzoic acid,3.76,Log unit,OC(=O)c1ccc(cc1)C=O,,25,?C
OC(=O)C1=C(F)C(F)=C(Cl)C(F)=C1F,"4-chloro-2,3,5,6-tetrafluoro-benzoic acid",1.69,Log unit,OC(=O)c1c(c(c(Cl)c(F)c1F)F)F,,25,?C
CC1=C(O)C(=CC=C1)C(O)=O,2-hydroxy-3-methyl-benzoic acid,3.014,Log unit,OC(=O)c1cccc(c1O)C,,25,?C
CC1=CC(O)=C(C=C1)C(O)=O,2-hydroxy-4-methyl-benzoic acid,3.172,Log unit,OC(=O)c1ccc(cc1O)C,,25,?C
CC1=CC(C(O)=O)=C(O)C=C1,2-hydroxy-5-methyl-benzoic acid,3.03,Log unit,OC(=O)c1c(ccc(c1)C)O,,25,?C
CC1=C(C=CC(=C1)N(=O)=O)C(O)=O,2-methyl-4-nitro-benzoic acid,2.95,Log unit,OC(=O)c1ccc(cc1C)N(=O)=O,,25,?C
OC(=O)C1=CC=CC(=C1N(=O)=O)N(=O)=O,"2,3-dinitro-benzoic acid",1.85,Log unit,OC(=O)c1cccc(N(=O)=O)c1N(=O)=O,,25,?C
OC(=O)C1=C(C=C(C=C1)N(=O)=O)N(=O)=O,"2,4-dinitro-benzoic acid",1.42,Log unit,OC(=O)c1ccc(cc1N(=O)=O)N(=O)=O,,25,?C
OC(=O)C1=C(C=CC(=C1)N(=O)=O)N(=O)=O,"2,5-dinitro-benzoic acid",1.62,Log unit,OC(=O)c1c(ccc(c1)N(=O)=O)N(=O)=O,,25,?C
OC(=O)C1=C(C=CC=C1N(=O)=O)N(=O)=O,"2,6-dinitro-benzoic acid",1.14,Log unit,OC(=O)c1c(cccc1N(=O)=O)N(=O)=O,,25,?C
OC(=O)C1=CC(=C(C=C1)N(=O)=O)N(=O)=O,"3,4-dinitro-benzoic acid",2.82,Log unit,OC(=O)c1ccc(N(=O)=O)c(N(=O)=O)c1,,25,?C
OC(=O)C1=CC(=CC(=C1)N(=O)=O)N(=O)=O,"3,5-Dinitro-benzoic acid",2.935,Log unit,OC(=O)c1cc(cc(c1)N(=O)=O)N(=O)=O,,25,?C
CC1=C(C=C(C=C1N(=O)=O)C(O)=O)N(=O)=O,"3,5-dinitro-para-tolylic acid",2.97,Log unit,OC(=O)c1cc(c(C)c(N(=O)=O)c1)N(=O)=O,,25,?C
OC(=O)C1=C(C=C(C=C1N(=O)=O)N(=O)=O)N(=O)=O,"2,4,6-trinitro-benzoic acid",0.654,Log unit,OC(=O)c1c(cc(cc1N(=O)=O)N(=O)=O)N(=O)=O,,25,?C
COC1=CC=CC=C1C(O)=O,2-Methoxy-benzoic acid,4.015,Log unit,OC(=O)c1ccccc1OC,,25,?C
COC1=CC(=CC=C1)C(O)=O,m-methoxy-benzoic acid,4.088,Log unit,OC(=O)c1cccc(c1)OC,,25,?C
COC1=CC=C(C=C1)C(O)=O,p-methoxy-benzoic acid,4.505,Log unit,OC(=O)c1ccc(cc1)OC,,25,?C
CCOC1=CC=CC=C1C(O)=O,2-ethoxy-benzoic acid,4.21,Log unit,OC(=O)c1ccccc1OCC,,25,?C
CCOC1=CC(=CC=C1)C(O)=O,m-ethoxy-benzoic acid,4.17,Log unit,OC(=O)c1cccc(c1)OCC,,25,?C
CCOC1=CC=C(C=C1)C(O)=O,p-ethoxy-benzoic acid,4.8,Log unit,OC(=O)c1ccc(cc1)OCC,,25,?C
CCCOC1=CC=CC=C1C(O)=O,o-n-propylhydroxy-benzoic acid,4.24,Log unit,OC(=O)c1ccccc1OCCC,,25,?C
CCCOC1=CC=CC(=C1)C(O)=O,m-n-propyl-oxy-benzoic acid,4.2,Log unit,OC(=O)c1cccc(c1)OCCC,,25,?C
CCCOC1=CC=C(C=C1)C(O)=O,p-n-propyl-oxy-benzoic acid,4.78,Log unit,OC(=O)c1ccc(cc1)OCCC,,25,?C
CC(C)OC1=CC=CC=C1C(O)=O,2-iso-propyl-oxy-benzoic acid,4.24,Log unit,OC(=O)c1ccccc1OC(C)C,,25,?C
CC(C)OC1=CC=CC(=C1)C(O)=O,m-iso-propyl-oxy-benzoic acid,4.15,Log unit,OC(=O)c1cccc(c1)OC(C)C,,25,?C
CC(C)OC1=CC=C(C=C1)C(O)=O,p-iso-propyl-oxy-benzoic acid,4.68,Log unit,OC(=O)c1ccc(cc1)OC(C)C,,25,?C
CCCCOC1=CC=CC(=C1)C(O)=O,m-n-butyl-oxy-benzoic acid,4.25,Log unit,OC(=O)c1cccc(c1)OCCCC,,25,?C
OC(=O)C1=CC=CC=C1OC1=CC=CC=C1,2-phenoxy-benzoic acid,3.53,Log unit,OC(=O)c1c(Oc2ccccc2)cccc1,,25,?C
OC(=O)C1=CC(OC2=CC=CC=C2)=CC=C1,3-phenoxy-benzoic acid,3.92,Log unit,OC(=O)c1cc(Oc2ccccc2)ccc1,,25,?C
OC(=O)C1=CC=C(OC2=CC=CC=C2)C=C1,3-phenoxy-benzoic acid,4.52,Log unit,OC(=O)c1ccc(Oc2ccccc2)cc1,,25,?C
CC(=O)OC1=CC=CC=C1C(O)=O,acetyl-salicylic acid,3.68,Log unit,OC(=O)c1ccccc1OC(=O)C,,25,?C
OCC1=C(C=CC=C1Cl)C(O)=O,3-chloro-2-methylol-benzoic acid,3.27,Log unit,OC(=O)c1c(c(Cl)ccc1)CO,,25,?C
OCC1=C(C(O)=O)C(Cl)=CC=C1,6-chloro-2-methylol-benzoic acid,2.26,Log unit,OC(=O)c1c(Cl)cccc1CO,,25,?C
OC(=O)C1=CC=CC(=C1Cl)N(=O)=O,2-chloro-3-nitro-benzoic acid,2.2,Log unit,OC(=O)c1c(Cl)c(ccc1)N(=O)=O,,25,?C
OC(=O)C1=CC=C(C=C1Cl)N(=O)=O,2-CHLORO-4-NITRO-BENZOIC ACID,2.14,Log unit,OC(=O)c1c(Cl)cc(cc1)N(=O)=O,,25,?C
OC(=O)C1=CC(=CC=C1Cl)N(=O)=O,2-chloro-5-nitro-benzoic acid,2.17,Log unit,OC(=O)c1c(Cl)ccc(N(=O)=O)c1,,25,?C
OC(=O)C1=C(C=CC=C1Cl)N(=O)=O,2-CHLORO-6-NITRO-BENZOIC ACID,1.34,Log unit,OC(=O)c1c(Cl)cccc1N(=O)=O,,25,?C
OCC1=C(C=CC=C1Br)C(O)=O,3-bromo-2-methylol-benzoic acid,3.28,Log unit,OC(=O)c1c(c(Br)ccc1)CO,,25,?C
OCC1=C(C(O)=O)C(Br)=CC=C1,6-bromo-2-methylol-benzoic acid,2.25,Log unit,OC(=O)c1c(Br)cccc1CO,,25,?C
OC(=O)C1=C(C=CC=C1Br)N(=O)=O,2-bromo-6-nitro-benzoic acid,1.37,Log unit,OC(=O)c1c(Br)cccc1N(=O)=O,,25,?C
OCC1=C(C=CC=C1I)C(O)=O,3-iodine-2-methylol-benzoic acid,3.18,Log unit,OC(=O)c1c(c(I)ccc1)CO,,25,?C
OC(=O)C1=CC(OOI)=CC=C1,m-iodohydroxy-benzoic acid,3.6,Log unit,OC(=O)c1cc(OOI)ccc1,,25,?C
OC(=O)C1=CC=C(OOI)C=C1,p-iodohydroxy-benzoic acid,3.54,Log unit,OC(=O)c1ccc(OOI)cc1,,25,?C
COC1=C(CO)C(=CC=C1)C(O)=O,3-methoxy-2-methylol-benzoic acid,3.58,Log unit,OC(=O)c1cccc(OC)c1CO,,25,?C
CCOC1=C(CO)C(=CC=C1)C(O)=O,3-ethoxy-2-methylol-benzoic acid,3.62,Log unit,OC(=O)c1cccc(OCC)c1CO,,25,?C
NC(=O)C1=CC=CC=C1C(O)=O,phthalic acid-monoamide,3.75,Log unit,OC(=O)c1ccccc1C(=O)N,,25,?C
CS(=O)(=O)C1=CC(=CC=C1)C(O)=O,3-methylsulfonyl-benzoic acid,3.52,Log unit,OC(=O)c1cccc(c1)S(=O)(=O)C,,25,?C
CS(=O)(=O)C1=CC=C(C=C1)C(O)=O,4-methylsulfonyl-benzoic acid,3.64,Log unit,OC(=O)c1ccc(cc1)S(=O)(=O)C,,25,?C
CCOP(=O)(OCC)C1=CC=CC(=C1)C(O)=O,m-diethoxyphosphinylbenzoic acid,3.69,Log unit,OC(=O)c1cc(P(=O)(OCC)OCC)ccc1,,25,?C
CCOP(=O)(OCC)C1=CC=C(C=C1)C(O)=O,p-diethoxyphosphinylbenzoic acid,3.615,Log unit,OC(=O)c1ccc(P(=O)(OCC)OCC)cc1,,25,?C
OC(=O)C1=C2C(=O)C3=CC=CC=C3C(=O)C2=CC=C1,anthraquinonecarboxylic acid-1,3.37,Log unit,OC(=O)c1c2C(=O)c3ccccc3C(=O)c2ccc1,,25,?C
OC(=O)C1=CC=C2C(=O)C3=CC=CC=C3C(=O)C2=C1,anthraquinonecarboxylic acid-2,3.42,Log unit,OC(=O)c1cc2C(=O)c3ccccc3C(=O)c2cc1,,25,?C
OC(=O)CC1=CC=CC=C1,PHENYL-ACETIC ACID,4.31,Log unit,OC(=O)Cc1ccccc1,,25,?C
CC1=CC=CC=C1CC(O)=O,alpha-methylphenyl-acetic acid,4.35,Log unit,OC(=O)Cc1ccccc1C,,25,?C
CC1=CC=C(CC(O)=O)C=C1,p-tolyl-acetic acid,4.365,Log unit,OC(=O)Cc1ccc(cc1)C,,25,?C
CCC1=CC=C(CC(O)=O)C=C1,p-ethylphenylacetic acid,4.37,Log unit,OC(=O)Cc1ccc(cc1)CC,,25,?C
CC(C)C1=CC=C(CC(O)=O)C=C1,3-iso-propylphenyl-acetic acid,4.39,Log unit,OC(=O)Cc1ccc(cc1)C(C)C,,25,?C
CC(C)(C)C1=CC=C(CC(O)=O)C=C1,p-tert.-butylphenyl-acetic acid,4.42,Log unit,OC(=O)Cc1ccc(cc1)C(C)(C)C,,25,?C
OC(=O)C(C1=CC=CC=C1)C1=CC=CC=C1,Diphenyl-acetic acid,3.94,Log unit,OC(=O)C(c1ccccc1)c1ccccc1,,25,?C
OC(=O)C(C1=CC=CC=C1)(C1=CC=CC=C1)C1=CC=CC=C1,triphenyl-acetic acid,3.96,Log unit,OC(=O)C(c1ccccc1)(c1ccccc1)c1ccccc1,,25,?C
OC(=O)CC1=CC=CC2=CC=CC=C12,2-(1-naphthyl)-acetic acid,4.225,Log unit,OC(=O)Cc1c2ccccc2ccc1,,25,?C
OC(=O)CC1=CC2=CC=CC=C2C=C1,beta-naphthyl-acetic acid,4.275,Log unit,OC(=O)Cc1cc2ccccc2cc1,,25,?C
OC(=O)CCC1=CC=CC=C1,beta-phenyl-propionic acid,4.66,Log unit,OC(=O)CCc1ccccc1,,25,?C
CC1=CC=CC=C1CCC(O)=O,beta-(o-tolyl)-propionic acid,4.66,Log unit,OC(=O)CCc1ccccc1C,,25,?C
CC1=CC(CCC(O)=O)=CC=C1,beta-(m-tolyl)-propionic acid,4.68,Log unit,OC(=O)CCc1cccc(c1)C,,25,?C
CC1=CC=C(CCC(O)=O)C=C1,beta-(p-tolyl)-propionic acid,4.68,Log unit,OC(=O)CCc1ccc(cc1)C,,25,?C
OC(=O)CCCC1=CC=CC=C1,gamma-phenyl-n-butyric acid,4.76,Log unit,OC(=O)CCCc1ccccc1,,25,?C
OC(=O)C=CC1=CC=CC=C1,TRANS-CINNAMIC ACID,4.43,Log unit,OC(=O)C=Cc1ccccc1,,25,?C
CC1=CC=CC=C1C=CC(O)=O,o-methyl-trans-cinnamic acid,4.5,Log unit,OC(=O)C=Cc1ccccc1C,,25,?C
CC1=CC(C=CC(O)=O)=CC=C1,meta-methyl-trans-cinnamic acid,4.44,Log unit,OC(=O)C=Cc1cccc(c1)C,,25,?C
CC1=CC=C(C=CC(O)=O)C=C1,para-methyl-trans-cinnamic acid,4.56,Log unit,OC(=O)C=Cc1ccc(cc1)C,,25,?C
OC(=O)C(C(O)=O)C1=CC=CC=C1,Phenylmalonic acid,2.85,Log unit,OC(=O)C(c1ccccc1)C(=O)O,,25,?C
OC(=O)CC(C(O)=O)C1=CC=CC=C1,Phenylsuccinic acid,4.08,Log unit,OC(=O)C(c1ccccc1)CC(=O)O,,25,?C
OC(=O)CC(CC1=CC=CC=C1)C(O)=O,benzylsuccinic acid,4.41,Log unit,OC(=O)C(Cc1ccccc1)CC(=O)O,,25,?C
OC(=O)CC(C(O)=O)(C1=CC=CC=C1)C1=CC=CC=C1,"alpha,alpha-diphenylsuccinic acid",3.35,Log unit,OC(=O)C(c1ccccc1)(c1ccccc1)CC(=O)O,,25,?C
OC(=O)C(C(C(O)=O)C1=CC=CC=C1)C1=CC=CC=C1,rac-alpha-alpha'-diphenylsuccinic acid,3.88,Log unit,OC(=O)C(c1ccccc1)C(c1ccccc1)C(=O)O,,25,?C
OC(=O)CC(CC1=CC=CC=C1)(C(O)=O)C1=CC=CC=C1,alpha-phenyl-alpha-benzylsuccinic acid,3.69,Log unit,OC(=O)C(Cc1ccccc1)(c1ccccc1)CC(=O)O,,25,?C
OC(=O)CC(CC1=CC=CC=C1)(CC1=CC=CC=C1)C(O)=O,"alpha,alpha-dibenzylsuccinic acid",4.3,Log unit,OC(=O)C(Cc1ccccc1)(Cc1ccccc1)CC(=O)O,,25,?C
OC(=O)CC(CCC1=CC=CC=C1)(C(O)=O)C1=CC=CC=C1,alpha-phenyl-alpha-phenethylsuccinic acid,4,Log unit,OC(=O)C(CCc1ccccc1)(c1ccccc1)CC(=O)O,,25,?C
OC(=O)CCC(C(O)=O)(C1=CC=CC=C1)C1=CC=CC=C1,"alpha,alpha-diphenylglutaric acid",4.21,Log unit,OC(=O)C(c1ccccc1)(c1ccccc1)CCC(=O)O,,25,?C
OC(=O)CCCC(C(O)=O)(C1=CC=CC=C1)C1=CC=CC=C1,"alpha,alpha-diphenyladipic acid",4.47,Log unit,OC(=O)C(c1ccccc1)(c1ccccc1)CCCC(=O)O,,25,?C
OC(=O)CC(C(CC(O)=O)C1=CC=CC=C1)C1=CC=CC=C1,"beta,beta'-diphenyladipic acid",4.545,Log unit,OC(=O)CC(C(c1ccccc1)CC(=O)O)c1ccccc1,,25,?C
OC(=O)CCCCC(C(O)=O)(C1=CC=CC=C1)C1=CC=CC=C1,"alpha,alpha-diphenylpimelic acid",4.58,Log unit,OC(=O)C(c1ccccc1)(c1ccccc1)CCCCC(=O)O,,25,?C
OC(=O)CCCCCC(C(O)=O)(C1=CC=CC=C1)C1=CC=CC=C1,"alpha,alpha-diphenylsuberic acid",4.61,Log unit,OC(=O)C(c1ccccc1)(c1ccccc1)CCCCCC(=O)O,,25,?C
OC(=O)CCCCCCC(C(O)=O)(C1=CC=CC=C1)C1=CC=CC=C1,"alpha,alpha-diphenylazelaic acid",4.63,Log unit,OC(=O)C(c1ccccc1)(c1ccccc1)CCCCCCC(=O)O,,25,?C
OC(=O)C(Br)C1=CC=CC=C1,phenyl-bromo-acetic acid,2.21,Log unit,OC(=O)C(Br)c1ccccc1,,25,?C
OC(=O)CC1=CC=C(F)C=C1,p-fluorophenyl-acetic acid,4.23,Log unit,OC(=O)Cc1ccc(F)cc1,,25,?C
OC(=O)CC1=CC(Cl)=CC=C1,o-chlorophenyl-acetic acid,4.14,Log unit,OC(=O)Cc1cc(Cl)ccc1,,25,?C
OC(=O)CC1=CC(Cl)=CC=C1,m-chlorophenyl-acetic acid,4.125,Log unit,OC(=O)Cc1cc(Cl)ccc1,,25,?C
OC(=O)CC1=CC=C(Cl)C=C1,p-chlorophenyl-acetic acid,4.18385,Log unit,OC(=O)Cc1ccc(Cl)cc1,,25,?C
OC(=O)CC1=CC=CC=C1Br,o-bromophenyl-acetic acid,4.05,Log unit,OC(=O)Cc1c(Br)cccc1,,25,?C
OC(=O)CC1=CC=C(Br)C=C1,p-bromophenyl-acetic acid,4.19,Log unit,OC(=O)Cc1ccc(Br)cc1,,25,?C
OC(=O)CC1=CC=CC=C1I,2-iodophenyl-acetic acid,4.04,Log unit,OC(=O)Cc1c(I)cccc1,,25,?C
OC(=O)CC1=CC(I)=CC=C1,m-iodophenyl-acetic acid,4.16,Log unit,OC(=O)Cc1cc(I)ccc1,,25,?C
OC(=O)CC1=CC=C(I)C=C1,p-iodophenyl-acetic acid,4.18,Log unit,OC(=O)Cc1ccc(I)cc1,,25,?C
OC(=O)CCC1=CC=CC=C1Cl,beta-(ortho-chlorophenyl)-propionic acid,4.58,Log unit,OC(=O)CCc1c(Cl)cccc1,,25,?C
OC(=O)CCC1=CC(Cl)=CC=C1,b-(m-chlorophenyl)-propionic acid,4.58,Log unit,OC(=O)CCc1cc(Cl)ccc1,,25,?C
OC(=O)CCC1=CC=C(Cl)C=C1,b-(p-chlorophenyl)-propionic acid,4.635,Log unit,OC(=O)CCc1ccc(Cl)cc1,,25,?C
OC(=O)C=CC1=CC=CC=C1Cl,o-chloro-trans-cinnamic acid,4.32,Log unit,OC(=O)C=Cc1c(Cl)cccc1,,25,?C
OC(=O)C=CC1=CC(Cl)=CC=C1,m-chloro-trans-cinnamic acid,4.29,Log unit,OC(=O)C=Cc1cc(Cl)ccc1,,25,?C
OC(=O)C=CC1=CC=C(Cl)C=C1,p-Chloro-trans-cinnamic acid,4.41,Log unit,OC(=O)C=Cc1ccc(Cl)cc1,,25,?C
OC(=O)C=CC1=CC=CC=C1Br,o-bromo-trans-cinnamic acid,4.32,Log unit,OC(=O)C=Cc1c(Br)cccc1,,25,?C
CC(C#N)(C(O)=O)C1=CC=CC=C1,alpha-benzyl-alpha-cyano-propionic acid,2.29,Log unit,OC(=O)C(c1ccccc1)(C)C#N,,25,?C
OC(C(O)=O)C1=CC=CC=C1,Mandelic acid,3.4,Log unit,OC(=O)C(c1ccccc1)O,,25,?C
OC(C([O-])=O)C1=CC=CC=C1,Mandelic acid,16.4,Log unit,OC(c1ccccc1)C(=O)[O-],,25,?C
CC(Cl)CC(O)=O,3-chloro-butanoic acid,4.2,Log unit,OC(=O)CC(Cl)C,,25,?C
CCOC(=O)CC(O)=O,2-ethoxycarbonyl-acetic acid,3.45,Log unit,OC(=O)CC(=O)OCC,,25,?C
CCCC(O)C(O)=O,2-hydroxy-pentanoic acid,3.59,Log unit,OC(=O)C(O)CCC,,25,?C
CC(Cl)CCC(O)=O,4-chloro-pentanoic acid,4.4,Log unit,OC(=O)CCC(Cl)C,,25,?C
OC(=O)CON(=O)=O,nitrooxyacetic acid,2.26,Log unit,OC(=O)CON(=O)=O,,25,?C
OC(=O)CS,Mercaptoacetic acid,3.5855,Log unit,OC(=O)CS,,25,?C
[O-]C(=O)CS,Mercaptoacetic acid,10.3,Log unit,SCC(=O)[O-],,25,?C
CCCCCCCCCCCC(O)=O,DODECANOIC ACID,5.3,Log unit,OC(=O)CCCCCCCCCCC,,25,?C
CCCCCC=CCC=CCCCCCCCC(O)=O,"9,12-Octadecadienoic acid",4.77,Log unit,OC(=O)CCCCCCCC=CCC=CCCCCC,,25,?C
CC1=CC(=CC=C1)C(O)=O,Benzoic acid,4.2,Log unit,OC(=O)c1cccc(c1)C,,25,?C
CC1=CC=CC=C1C(O)=O,ortho-tolylic acid,3.914,Log unit,OC(=O)c1ccccc1C,,25,?C
CC1=CC(=CC=C1)C(O)=O,m-tolylic acid,4.27,Log unit,OC(=O)c1cccc(c1)C,,25,?C
CC1=CC=C(C=C1)C(O)=O,p-tolylic acid,4.405,Log unit,OC(=O)c1ccc(cc1)C,,25,?C