Smiles,Name,pKa,pKa Unit,Ionizable center smiles,IC group,Temperature,Temperature Unit
NC1=C(O)C=CC=C1O,"2,6-dihydroxy-aniline",5.1,Log unit,Nc1c(cccc1O)O,nr2,25,?C
NC1=C(O)C=CC=C1O,"2,6-dihydroxy-aniline",9.3,Log unit,Oc1cccc(c1N)O,oh,25,?C
NC1=C([O-])C=CC=C1O,"2,6-dihydroxy-aniline",11.3,Log unit,Oc1cccc([O-])c1N,oh,25,?C
CC(C)N(C(C)C)C1=CC=CC=C1,"N,N-diisopropylaniline",7.37,Log unit,N(c1ccccc1)(C(C)C)C(C)C,nr2,25,?C
CC(N)C(O)C1=CC=C(O)C(O)=C1,"1-(2-amino-1-hydroxy)propyl-3,4-dihydroxybenzene",8.8,Log unit,NC(C(c1ccc(O)c(O)c1)O)C,nr2,25,?C
CC(N)C(O)C1=CC=C(O)C=C1,1-(2-amino-1-hydroxy)propyl-4-hydroxybenzene,8.7,Log unit,NC(C(c1ccc(O)cc1)O)C,nr2,25,?C
NC1=CC(I)=CC(I)=C1,"3,5-di-iodo-aniline",2.4,Log unit,Nc1cc(I)cc(I)c1,nr2,25,?C
COC1=CC(OC)=CC(N)=C1,"3,5-dimethoxy-aniline",3.82,Log unit,Nc1cc(cc(c1)OC)OC,nr2,25,?C
CN(C)C1=CC=CC=C1,"n,n-dimethylaniline",5.15,Log unit,N(c1ccccc1)(C)C,nr2,25,?C
CNC1=CC=CC=C1C,"N,2-Dimethylaniline",4.61,Log unit,N(c1ccccc1C)C,nr2,25,?C
CNC1=CC=CC(C)=C1,"N,3-Dimethylaniline",4.925,Log unit,N(c1cccc(c1)C)C,nr2,25,?C
CNC1=CC=C(C)C=C1,"N,4-DIMETHYLANILINE",5.305,Log unit,N(c1ccc(cc1)C)C,nr2,25,?C
CC1=CC=CC(N)=C1C,"2,3-dimethyl-aniline",4.71,Log unit,Nc1cccc(c1C)C,nr2,25,?C
CC1=CC(C)=C(N)C=C1,"2,4-dimethyl-aniline",4.89,Log unit,Nc1ccc(cc1C)C,nr2,25,?C
CC1=CC(N)=C(C)C=C1,"2,5-dimethyl-aniline",4.55,Log unit,Nc1c(ccc(c1)C)C,nr2,25,?C
CC1=CC=CC(C)=C1N,"2,6-dimethyl-aniline",3.92,Log unit,Nc1c(cccc1C)C,nr2,25,?C
CC1=C(C)C=C(N)C=C1,"3,4-dimethyl-aniline",5.17,Log unit,Nc1ccc(c(C)c1)C,nr2,25,?C
CC1=CC(N)=CC(C)=C1,"3,5-dimethyl-aniline",4.85,Log unit,Nc1cc(cc(c1)C)C,nr2,25,?C
CN(C)C1=CC=C(N)C=C1,4-dimethylaminoaniline,6.59,Log unit,N(c1ccc(cc1)N)(C)C,nr2,25,?C
CCC(C)(CN(C)C)OC(=O)C1=CC=C(N)C=C1,4-[(1-dimethylaminomethyl-1methyl)propoxycarbonyl)]aniline,8.91,Log unit,N(CC(OC(=O)c1ccc(cc1)N)(CC)C)(C)C,nr2,25,?C
CN(C)C1=CC=C(C=C1)N(C)C,"N',N'-dimethyl-4-dimethylaminoaniline",6.35,Log unit,N(c1ccc(cc1)N(C)C)(C)C,nr2,25,?C
CN(C)C1=CC=CC(=C1)N(=O)=O,"N,N-Dimethyl-3-nitroaniline",2.64,Log unit,N(=O)(=O)c1cccc(c1)N(C)C,nr2,25,?C
CN(C)C1=CC=C(C=C1)N(=O)=O,"N,N-Dimethyl-4-nitroaniline",0.92,Log unit,N(c1ccc(cc1)N(=O)=O)(C)C,nr2,25,?C
CC1=C(N)C=CC(=C1C)N(=O)=O,"2,3-dimethyl-4-nitro-aniline",1.96,Log unit,N(=O)(=O)c1ccc(N)c(c1C)C,nr2,25,?C
CC1=CC(=CC(C)=C1N)N(=O)=O,"2,6-Dimethyl-4-nitro-aniline",0.98,Log unit,Nc1c(cc(cc1C)N(=O)=O)C,nr2,25,?C
CC1=CC(N)=CC(C)=C1N(=O)=O,"3,5-dimethyl-4-nitro-aniline",2.565,Log unit,Nc1cc(C)c(c(c1)C)N(=O)=O,nr2,25,?C
CN(C)C1=CC(=CC=C1)C(F)(F)F,"N,N-dimethyl-3-trifluoromethylaniline",3.27,Log unit,N(c1cccc(c1)C(F)(F)F)(C)C,nr2,25,?C
CN(C)C1=CC=C(C=C1)C(F)(F)F,"N,N-dimethyl-4-trifluoromethylaniline",2.67,Log unit,N(c1ccc(cc1)C(F)(F)F)(C)C,nr2,25,?C
CN(C)C1=C(C=C(C=C1N(=O)=O)N(=O)=O)N(=O)=O,"N,N-Dimethyl-2,4,6-trinitroaniline",-4.915,Log unit,N(=O)(=O)c1cc(cc(N(=O)=O)c1N(C)C)N(=O)=O,nr2,25,?C
NC1=C(C=C(C=C1)N(=O)=O)N(=O)=O,"2,4-dinitro-aniline",-4.475,Log unit,N(=O)(=O)c1ccc(N)c(c1)N(=O)=O,nr2,25,?C
NC1=C(C=CC(=C1)N(=O)=O)N(=O)=O,"2,5-dinitroaniline",-2.49,Log unit,Nc1c(ccc(c1)N(=O)=O)N(=O)=O,nr2,25,?C
NC1=CC(=C(C=C1)N(=O)=O)N(=O)=O,"3,4-dinitro-aniline",-1.2,Log unit,N(=O)(=O)c1ccc(cc1N(=O)=O)N,nr2,25,?C
NC1=CC(=CC(=C1)N(=O)=O)N(=O)=O,"3,5-dinitro-aniline",0.245,Log unit,N(=O)(=O)c1cc(cc(c1)N(=O)=O)N,nr2,25,?C
NC1=CC(=CC(=C1)N(=O)=O)N(=O)=O,"3,5-dinitroaniline",0.229,Log unit,Nc1cc(cc(c1)N(=O)=O)N(=O)=O,nr2,25,?C
C1=CC=C(C=C1)N(C1=CC=CC=C1)C1=CC=CC=C1,"N,N-Diphenylaniline",-5,Log unit,N(c1ccccc1)(c1ccccc1)c1ccccc1,nr2,25,?C
CCCN(CCC)C1=CC=CC=C1,"N,N-Dipropylaniline",5.68,Log unit,N(c1ccccc1)(CCC)CCC,nr2,25,?C
CCOC1=CC=CC=C1N,2-ethoxy-aniline,4.43,Log unit,Nc1ccccc1OCC,nr2,25,?C
CCOC1=CC=CC(N)=C1,3-ethoxy-aniline,4.155,Log unit,Nc1cccc(c1)OCC,nr2,25,?C
NC1CCCC1O,1-amino-2-hydroxycyclopentane,9.28,Log unit,NC1C(O)CCC1,nr2,25,?C
CNC1CCCC1O,1-hydroxy-2-methylaminocyclopentane,10.06,Log unit,N(C1C(O)CCC1)C,nr2,25,?C
CNC1CCCC1,methylaminocyclopentane,10.85,Log unit,N(C1CCCC1)C,nr2,25,?C
NC1CCCCC1,Aminocyclohexane,10.83,Log unit,NC1CCCCC1,nr2,25,?C
NC1CCCCC1Cl,1-amino-2-chlorocyclohexane,9.49,Log unit,NC1C(Cl)CCCC1,nr2,25,?C
NC1CCCCC1O,1-amino-2-hydroxycyclohexane,9.53,Log unit,NC1C(O)CCCC1,nr2,25,?C
CC1CCC(O)C(N)C1,1-amino-2-hydroxy-5-methylcyclohexane,9.41,Log unit,NC1C(O)CCC(C)C1,nr2,25,?C
CC1CCCC(O)C1N,1-amino-2-hydroxy-6-methylcyclohexane,9.39,Log unit,NC1C(O)CCCC1C,nr2,25,?C
CC(C)C1CCC(C)CC1N,trans-1-amino-2-isopropyl-5-methylcyclohexane,10.555,Log unit,NC1CC(CCC1C(C)C)C,nr2,25,?C
NCC1CCCCC1,aminomethylcyclohexane,10.54,Log unit,NCC1CCCCC1,nr2,25,?C
CC1(N)CCCCC1,1-amino-1-methylcyclohexane,10.36,Log unit,NC1(CCCCC1)C,nr2,25,?C
CC1CCCCC1N,trans-1-amino-2-methylcyclohexane,10.56,Log unit,NC1CCCCC1C,nr2,25,?C
CC1CCCC(N)C1,1-amino-3-methylcyclohexane,10.61,Log unit,NC1CCCC(C1)C,nr2,25,?C
CC1CCC(N)CC1,trans-1-amino-4-methylcyclohexane,10.48,Log unit,NC1CCC(C)CC1,nr2,25,?C
CCCC1CCCCC1N,(2-amino)propylcyclohexane,10.14,Log unit,NC1CCCCC1CCC,nr2,25,?C
CC(C)(C)NC1CCCCC1,t-butylaminocyclohexane,11.23,Log unit,N(C1CCCCC1)C(C)(C)C,nr2,25,?C
CNC1CCCCC1Cl,1-chloro-2-methylaminocyclohexane,9.85,Log unit,N(C1C(Cl)CCCC1)C,nr2,25,?C
NC1CCCCC1N,"trans-1,2-Diaminocyclohexane",9.64,Log unit,NC1CCCCC1N,nr2,25,?C
CN(C)C1CCCCC1,Dimethylaminocyclohexane,10.72,Log unit,N(C1CCCCC1)(C)C,nr2,25,?C
CN(C)C1CCCCC1O,1-dimethylamino-2-hydroxycyclohexane,10.32,Log unit,N(C1C(O)CCCC1)(C)C,nr2,25,?C
CC(C)NCC(O)C1CCC(O)CC1,1-hydroxy-4-(1-hydroxy-2-isopropylamino)ethylcyclohexane,10.23,Log unit,N(CC(C1CCC(O)CC1)O)C(C)C,nr2,25,?C
CNC1CCCCC1,methylaminocyclohexane,11.04,Log unit,N(C1CCCCC1)C,nr2,25,?C
CNC(C)CC1CCCCC1,(2-methylamino)propylcyclohexane,10.52,Log unit,N(C(CC1CCCCC1)C)C,nr2,25,?C
CCC(C)CNC1CCCCC1,2-(2-methyl)butylaminocyclohexane,11.1,Log unit,N(C1CCCCC1)CC(C)CC,nr2,25,?C
NC1CCCC=C1,3-aminocyclohex-1-ene,10.42,Log unit,NC1C=CCCC1,nr2,25,?C
CC1=CCCCC1N,3-amino-2-methylcyclohex-1-ene,10.37,Log unit,NC1C(=CCCC1)C,nr2,25,?C
NC1CCCCCC1O,1-amino-2-hydroxycycloheptane,9.25,Log unit,NC1C(O)CCCCC1,nr2,25,?C
NC1CCCCCC1N,"1,2-diaminocycloheptane",10.18,Log unit,NC1CCCCCC1N,nr2,25,?C
CC1(C)C2CCC1(CN)CC2,bornylamine,10.17,Log unit,NCC12CCC(CC1)C2(C)C,nr2,25,?C
NC1=CC=CC=C1,aniline,4.6215,Log unit,Nc1ccccc1,nr2,25,?C
CC(=O)C1=CC=CC=C1N,2-acetyl-aniline,2.31,Log unit,Nc1ccccc1C(=O)C,nr2,25,?C
C=CCNC1=CC=CC=C1,N-Allylaniline,4.17,Log unit,N(c1ccccc1)CC=C,nr2,25,?C
CC(=O)C1=C(N)C=CC(=C1)N(=O)=O,2-acetyl-4-nitroaniline,-0.14,Log unit,Nc1c(C(=O)C)cc(N(=O)=O)cc1,nr2,25,?C
CC(=O)C1=CC(=C(N)C=C1)N(=O)=O,4-acetyl-2-nitroaniline,-2.85,Log unit,Nc1c(N(=O)=O)cc(C(=O)C)cc1,nr2,25,?C
NC1=CC=CC=C1N,2-amino-aniline,4.17,Log unit,Nc1ccccc1N,nr2,25,?C
NC1=CC=CC=C1[NH3+],2-amino-aniline,1.6,Log unit,Nc1ccccc1[NH2+],nr2,25,?C
CC1=CC(N)=C([NH3+])C=C1,2-amino-4-methylaniline,0.98,Log unit,Nc1c(ccc(c1)C)[NH2+],nr2,25,?C
NC1=CC(N)=CC=C1,3-amino-aniline,4.7,Log unit,Nc1cccc(c1)N,nr2,25,?C
NC1=CC=CC([NH3+])=C1,3-amino-aniline,2.7,Log unit,Nc1cccc(c1)[NH2+],nr2,25,?C
NC1=CC=C(N)C=C1,4-amino-aniline,6.03,Log unit,Nc1ccc(cc1)N,nr2,25,?C
NC1=CC=C([NH3+])C=C1,4-amino-aniline,3.41,Log unit,Nc1ccc(cc1)[NH2+],nr2,25,?C
NC1=CC=C(C=C1)C(=O)C1=CC=C(N)C=C1,4-(p-aminobenzoyl)-aniline,2.932,Log unit,Nc1ccc(C(=O)c2ccc(cc2)N)cc1,nr2,25,?C
NC1=CC=C(C=C1)C(=O)C1=CC=C([NH3+])C=C1,4-(p-aminobenzoyl)-aniline,1.4,Log unit,Nc1ccc(cc1)C(=O)c1ccc([NH2+])cc1,nr2,25,?C
NC1=CC=C(O)C(N)=C1[O-],"3-amino-2,6-dihydroxy-aniline",11.5,Log unit,Oc1ccc(c(c1N)[O-])N,oh,25,?C
NC1=CC(N)=C(O)C=C1O,"3-amino-4,6-dihydroxy-aniline",5.7,Log unit,Nc1c(cc(O)c(c1)N)O,nr2,25,?C
NC1=CC(N)=C([O-])C=C1O,"3-amino-4,6-dihydroxy-aniline",11.7,Log unit,Oc1cc([O-])c(N)cc1N,oh,25,?C
NC1=CC(N)=C(O)C=C1O,"3-amino-4,6-dihydroxy-aniline",10.1,Log unit,Oc1cc(O)c(N)cc1N,oh,25,?C
NC1=CC=CC(N)=C1O,3-amino-2-hydroxyaniline,5.2,Log unit,Nc1cccc(c1O)N,nr2,25,?C
NC1=C(O)C([NH3+])=CC=C1,3-amino-2-hydroxyaniline,3,Log unit,Nc1cccc(c1O)[NH2+],nr2,25,?C
NC1=C(O)C=CC([NH3+])=C1,3-amino-4-hydroxy-aniline,3.1,Log unit,Nc1c(ccc(c1)[NH2+])O,nr2,25,?C
NC1=CC(N)=C(O)C=C1,3-amino-4-hydroxy-aniline,10.5,Log unit,Oc1ccc(cc1N)N,oh,25,?C
NC1=CC=C(C=C1)S(=O)(=O)C1=CC=C(N)C=C1,4-(4-amino)phenylsulphonylaniline,2.2,Log unit,Nc1ccc(cc1)S(=O)(=O)c1ccc(N)cc1,nr2,25,?C
NC1=CC=C(C=C1)S(=O)(=O)C1=CC=C([NH3+])C=C1,4-(4-amino)phenylsulphonylaniline,1.6,Log unit,Nc1ccc(S(=O)(=O)c2ccc(cc2)[NH2+])cc1,nr2,25,?C
NC1=CC=C(C=C1)S([O-])(=O)=O,1-amino-4-sulphoaniline,3.29,Log unit,Nc1ccc(S(=O)(=O)[O-])cc1,nr2,25,?C
NC1=CC(=CC=C1)S([O-])(=O)=O,1-amino-3-sulphoaniline,3.744,Log unit,Nc1cc(S(=O)(=O)[O-])ccc1,nr2,25,?C
NC1=CC=C(CC2=CC=CC=C2)C=C1,4-Benzylaniline,4.78,Log unit,Nc1ccc(Cc2ccccc2)cc1,nr2,25,?C
NC1=CC=C(C=C1)C(=O)C1=CC=CC=C1,4-benzoyl-aniline,2.205,Log unit,Nc1ccc(C(=O)c2ccccc2)cc1,nr2,25,?C
OC1=CC=C(NCC2=CC=CC=C2)C=C1,N-benzyl-4-hydroxyaniline,5.1,Log unit,N(Cc1ccccc1)c1ccc(O)cc1,nr2,25,?C
NC1=CC=CC=C1Br,2-bromo-aniline,2.55,Log unit,Nc1c(Br)cccc1,nr2,25,?C
NC1=CC(Br)=CC=C1,3-bromo-aniline,3.59,Log unit,Nc1cc(Br)ccc1,nr2,25,?C
NC1=CC=C(Br)C=C1,4-Bromo-aniline,3.905,Log unit,Nc1ccc(Br)cc1,nr2,25,?C
CN(C)C1=CC=C(Br)C=C1,"4-Bromo-N,N-dimethylaniline",4.257,Log unit,N(c1ccc(Br)cc1)(C)C,nr2,25,?C
CC1=CC(Br)=CC(C)=C1N,"4-bromo-2,6-dimethyl-aniline",3.54,Log unit,Nc1c(cc(Br)cc1C)C,nr2,25,?C
COC1=CC=C(N)C=C1Br,3-bromo-4-methoxy-aniline,4.085,Log unit,Nc1cc(Br)c(cc1)OC,nr2,25,?C
CC1=CC=C(N)C=C1Br,3-bromo-4-methyl-aniline,4.01,Log unit,Nc1cc(Br)c(cc1)C,nr2,25,?C
CC1=CC(Br)=CC=C1N,4-bromo-2-methyl-aniline,3.58,Log unit,Nc1ccc(Br)cc1C,nr2,25,?C
CN(C)C1=C(C)C=C(Br)C=C1C,"4-bromo-n,n,2,6-tetramethyl-aniline",4.36,Log unit,N(c1c(cc(Br)cc1C)C)(C)C,nr2,25,?C
CC1=CC(N)=CC=C1Br,4-BROMO-3-METHYLANILINE,4.05,Log unit,Nc1ccc(Br)c(c1)C,nr2,25,?C
NC1=CC(=CC=C1Br)N(=O)=O,2-Bromo-5-nitroaniline,0.52,Log unit,N(=O)(=O)c1ccc(Br)c(c1)N,nr2,25,?C
NC1=C(C=C(Br)C=C1)N(=O)=O,4-Bromo-2-nitroaniline,-1.075,Log unit,Nc1c(N(=O)=O)cc(Br)cc1,nr2,25,?C
NC1=CC=C(Br)C(=C1)N(=O)=O,4-Bromo-3-nitroaniline,1.8,Log unit,Nc1ccc(Br)c(c1)N(=O)=O,nr2,25,?C
NC1=CC(Br)=CC=C1N(=O)=O,5-bromo-2-nitroaniline,-1.48,Log unit,N(=O)(=O)c1ccc(Br)cc1N,nr2,25,?C
NC1=C(C(Br)=C(C=C1N(=O)=O)N(=O)=O)N(=O)=O,"3-bromo-2,4,6-trinitroaniline",-9.58,Log unit,N(=O)(=O)c1cc(c(Br)c(c1N)N(=O)=O)N(=O)=O,nr2,25,?C
CCCCOC1=CC(=C(N)C=C1)N(=O)=O,4-Butoxy-2-nitroaniline,0.74,Log unit,Nc1ccc(cc1N(=O)=O)OCCCC,nr2,25,?C
CCCCOC(=O)C1=CC=C(N)C=C1,4-butoxycarbonyl-aniline,2.472,Log unit,Nc1ccc(cc1)C(=O)OCCCC,nr2,25,?C
CCCCNC1=CC=CC=C1,N-n-butylaniline,5.035,Log unit,N(c1ccccc1)CCCC,nr2,25,?C
CCCCC1=CC=CC=C1N,2-n-butyl-aniline,4.26,Log unit,Nc1ccccc1CCCC,nr2,25,?C
CC(C)(C)C1=CC=CC=C1N,2-t-butyl-aniline,4.405,Log unit,Nc1ccccc1C(C)(C)C,nr2,25,?C
CC(C)(C)C1=CC=CC(N)=C1,3-t-butyl-aniline,4.66,Log unit,Nc1cccc(C(C)(C)C)c1,nr2,25,?C
CC(C)(C)C1=CC=C(N)C=C1,4-t-butyl-aniline,4.95,Log unit,Nc1ccc(cc1)C(C)(C)C,nr2,25,?C
CCC(C)N(C)C1=CC=CC=C1,N-s-butyl-N-methylaniline,6.03,Log unit,N(c1ccccc1)(C)C(C)CC,nr2,25,?C
CN(C1=CC=CC=C1)C(C)(C)C,N-t-butyl-N-methylaniline,7.39,Log unit,N(c1ccccc1)(C)C(C)(C)C,nr2,25,?C
CC1=CC=CC=C1NC(C)(C)C,N-t-butyl-2-methylaniline,6.49,Log unit,N(c1ccccc1C)C(C)(C)C,nr2,25,?C
NC1=CC=CC=C1Cl,2-CHLORO-ANILINE,2.64,Log unit,Nc1c(Cl)cccc1,nr2,25,?C
NC1=CC(Cl)=CC=C1,3-CHLORO-ANILINE,3.635,Log unit,Nc1cc(Cl)ccc1,nr2,25,?C
NC1=CC=C(Cl)C=C1,4-CHLORO-ANILINE,4.07,Log unit,Nc1ccc(Cl)cc1,nr2,25,?C
CN(C)C1=CC(Cl)=CC=C1,"3-Chloro-N,N-dimethylaniline",3.837,Log unit,N(c1cc(Cl)ccc1)(C)C,nr2,25,?C
CN(C)C1=CC=C(Cl)C=C1,"4-Chloro-N,N-dimethylaniline",4.395,Log unit,N(c1ccc(Cl)cc1)(C)C,nr2,25,?C
NC1=C(C=C(Cl)C=C1N(=O)=O)N(=O)=O,"4-chloro-2,6-dinitroaniline",-6.12,Log unit,Nc1c(cc(Cl)cc1N(=O)=O)N(=O)=O,nr2,25,?C
NC1=CC=C(F)C(Cl)=C1,3-CHLORO-4-FLUOROANILINE,3.66,Log unit,Nc1cc(Cl)c(F)cc1,nr2,25,?C
COC1=CC=C(Cl)C=C1N,5-Chloro-2-methoxyaniline,3.56,Log unit,Nc1cc(Cl)ccc1OC,nr2,25,?C
CC1=CC(Cl)=CC=C1N,4-Chloro-2-methylaniline,3.848,Log unit,Nc1ccc(Cl)cc1C,nr2,25,?C
NC1=CC=C(C=C1Cl)N(=O)=O,2-Chloro-4-nitroaniline,-0.94,Log unit,N(=O)(=O)c1cc(Cl)c(cc1)N,nr2,25,?C
NC1=CC(=CC=C1Cl)N(=O)=O,2-chloro-5-nitroaniline,0.64,Log unit,N(=O)(=O)c1ccc(Cl)c(c1)N,nr2,25,?C
NC1=C(C=CC=C1Cl)N(=O)=O,2-Chloro-6-nitroaniline,-2.365,Log unit,Nc1c(Cl)cccc1N(=O)=O,nr2,25,?C
NC1=CC=C(C(Cl)=C1)N(=O)=O,3-chloro-4-nitroaniline,0.26,Log unit,Nc1cc(Cl)c(cc1)N(=O)=O,nr2,25,?C
NC1=C(C(Cl)=C(C=C1N(=O)=O)N(=O)=O)N(=O)=O,"3-chloro-2,4,6-trinitroaniline",-9.7,Log unit,N(=O)(=O)c1cc(c(Cl)c(c1N)N(=O)=O)N(=O)=O,nr2,25,?C
COC1=CC(Cl)=CC(N)=C1,3-chloro-5-methoxy-aniline,3.1,Log unit,Nc1cc(Cl)cc(c1)OC,nr2,25,?C
CNC1=CC=C(Cl)C=C1,4-chloro-n-methyl-aniline,3.9,Log unit,N(c1ccc(Cl)cc1)C,nr2,25,?C
CC1=CC=C(N)C=C1Cl,3-chloro-4-methyl-aniline,4.05,Log unit,Nc1cc(Cl)c(cc1)C,nr2,25,?C
C=CCNCC=C,1-allylaminoprop-2-ene,9.29,Log unit,N(CC=C)CC=C,nr2,25,?C
NCC=C,1-amino-prop-2-ene,9.51,Log unit,NCC=C,nr2,25,?C
CC(O)CN(CC=C)CC(C)O,1-(bis-2-hydroxypropyl)aminoprop-2-ene,8.2,Log unit,N(CC(O)C)(CC=C)CC(O)C,nr2,25,?C
C=CCN(CC=C)CC=C,1-diallylaminoprop-2-ene,8.31,Log unit,N(CC=C)(CC=C)CC=C,nr2,25,?C
CN(C)CC=C,1-dimethylaminoprop-2-ene,8.64,Log unit,N(C)(C)CC=C,nr2,25,?C
CNCC=C,1-methylaminoprop-2-ene,10.11,Log unit,N(C)CC=C,nr2,25,?C
CN(C)CCCCC(C)=O,1-acetyl-4-dimethylaminobutane,9.62,Log unit,N(CCCCC(=O)C)(C)C,nr2,25,?C
CCCCN,1-AMINO-BUTANE,10.7485,Log unit,NCCCC,nr2,25,?C
CCC(C)N,2-Aminobutane,10.56,Log unit,NC(C)CC,nr2,25,?C
CCN(CC)CCCCN,1-amino-4-diethylaminobutane,10.3,Log unit,NCCCCN(CC)CC,nr2,25,?C
NCCCCO,1-amino-4-hydroxybutane,10.35,Log unit,NCCCCO,nr2,25,?C
CCC(N)CO,2-Amino-1-hydroxybutane,9.535,Log unit,NC(CO)CC,nr2,25,?C
CCC(N)(CO)OC,2-amino-1-hydroxy-2-hydroxymethylbutane,8.8,Log unit,NC(CO)(OC)CC,nr2,25,?C
CC(=NO)C(C)(C)N,2-amino-3-hydroxyimino-2-methylbutane,9.12,Log unit,NC(C(=NO)C)(C)C,nr2,25,?C
CCC(C)CN,1-Amino-2-methylbutane,10.64,Log unit,NCC(C)CC,nr2,25,?C
CCCCCN,1-Amino-3-methylbutane,10.655,Log unit,NCCCCC,nr2,25,?C
CCC(C)(C)N,2-amino-2-methylbutane,10.785,Log unit,NC(C)(C)CC,nr2,25,?C
NCCCC(Cl)(Cl)Cl,"1-amino-4,4,4-trichlorobutane",9.93,Log unit,NCCCC(Cl)(Cl)Cl,nr2,25,?C
CCCCN(CCCl)CCCl,1-bis(2-chloroethyl)aminobutane,6.78,Log unit,N(CCCl)(CCCl)CCCC,nr2,25,?C
NCC(Cl)=C(Cl)Cl,"1-amino-2,3,3-trichloro-prop-2-ene",6.72,Log unit,NCC(=C(Cl)Cl)Cl,nr2,25,?C
CCCCN(CC(C)O)CC(C)O,1-(bis-2-hydroxypropyl)aminobutane,9.3,Log unit,N(CC(O)C)(CCCC)CC(O)C,nr2,25,?C
CCCCNCCCC,1-butylaminobutane,11.32,Log unit,N(CCCC)CCCC,nr2,25,?C
CCC(C)NC(C)CC,2-s-butylaminobutane,11.01,Log unit,N(C(C)CC)C(C)CC,nr2,25,?C
CCN(CC)CCCCC#N,1-cyano-4-diethylaminobutane,10.08,Log unit,N(CCCCC#N)(CC)CC,nr2,25,?C
CC(CC(C#N)(C1=CC=CC=C1)C1=CC=CC=C1)N(C)C,"1-cyano-3-dimethylamino-1,1-diphenylbutane",8.26,Log unit,N(C(CC(c1ccccc1)(c1ccccc1)C#N)C)(C)C,nr2,25,?C
CC([NH3+])CCN,"1,3-Diaminobutane",8.72,Log unit,NCCC([NH3+])C,nr2,25,?C
NCCCCN,"1,4-diaminobutane",10.5,Log unit,NCCCCN,nr2,25,?C
NCCCC[NH3+],"1,4-diaminobutane",9.65,Log unit,NCCCC[NH3+],nr2,25,?C
CC(N)C(C)N,"2,3-diaminobutane",10,Log unit,NC(C)C(N)C,nr2,25,?C
CC(N)C(C)[NH3+],"2,3-diaminobutane",6.92,Log unit,NC(C([NH3+])C)C,nr2,25,?C
CC(C)(N)C(C)(C)N,"2,3-diamino-2,3-dimethylbutane",9.87,Log unit,NC(C)(C)C(N)(C)C,nr2,25,?C
CC(C)(N)C(C)(C)[NH3+],"2,3-diamino-2,3-dimethylbutane",6.9,Log unit,NC(C([NH3+])(C)C)(C)C,nr2,25,?C
CCC([NH3+])(CC)CN,"1,2-diamino-2-ethylbutane",6.62,Log unit,NCC([NH3+])(CC)CC,nr2,25,?C
CCCCN(CCCC)CCCC,1-dibutylaminobutane,10.485,Log unit,N(CCCC)(CCCC)CCCC,nr2,25,?C
CCCCN(C)C,1-dimethylaminobutane,10.19,Log unit,N(C)(C)CCCC,nr2,25,?C
CCC(C)N(C)C,2-dimethylaminobutane,10.57,Log unit,N(C)(C)C(C)CC,nr2,25,?C
CC(CC(C1=CC=CC=C1)C1=CC=CC=C1)N(C)C,"2-dimethylamino-4,4-diphenylbutane",9.43,Log unit,N(C(CC(c1ccccc1)c1ccccc1)C)(C)C,nr2,25,?C
CCC(=O)C(CC(C)N(C)C)(C1=CC=CC=C1)C1=CC=CC=C1,"2-dimethylamino-4-ethylcarbonyl-4,4-diphenylbutane",9.53,Log unit,N(C(CC(c1ccccc1)(c1ccccc1)C(=O)CC)C)(C)C,nr2,25,?C
CC(C)CCNCCC(C)C,1-isoamylamino-3-methylbutane,10.93,Log unit,N(CCC(C)C)CCC(C)C,nr2,25,?C
CC(C=C(C1=CC=CC=C1)C1=CC=CC=C1)N(C)C,"3-dimethylamino-1,1-diphenylbut-1-ene",9.21,Log unit,N(C(C=C(c1ccccc1)c1ccccc1)C)(C)C,nr2,25,?C
CCCCCN,1-Aminopentane,10.635,Log unit,NCCCCC,nr2,25,?C
CCC(N)CC,3-AMINOPENTANE,10.42,Log unit,NC(CC)CC,nr2,25,?C
NCCCCCBr,1-amino-5-bromopentane,9.62,Log unit,NCCCCCBr,nr2,25,?C
CCN(CC)CCCC(C)[NH3+],2-Amino-5-diethylaminopentane,9.55,Log unit,N(CCCC([NH3+])C)(CC)CC,nr2,25,?C
CCCC(N)C(C)C,"3-Amino-2,4-dimethylpentane",10.23,Log unit,NC(CCC)C(C)C,nr2,25,?C
CCC(N)(CC)CC,"3-Amino-2,4-dimethylpentane",10.59,Log unit,NC(CC)(CC)CC,nr2,25,?C
NCCCCCO,1-amino-5-hydroxypentane,10.46,Log unit,NCCCCCO,nr2,25,?C
CCC(C)(N)CC,3-amino-3-methylpentane,10.63,Log unit,NC(C)(CC)CC,nr2,25,?C
CC(C)(C)CC(C)(C)N,"2-Amino-2,4,4-trimethylpentane",10.785,Log unit,NC(C)(C)CC(C)(C)C,nr2,25,?C
NCCCCC(Cl)(Cl)Cl,"1-amino-5,5,5-trichloro-pentane",10.12,Log unit,NCCCCC(Cl)(Cl)Cl,nr2,25,?C
CCCCCNCCCCC,1-amylaminopentane,11.16,Log unit,N(CCCCC)CCCCC,nr2,25,?C
CCCCCN(CC(C)O)CC(C)O,1-(bis-2-hydroxypropyl)aminopentane,9,Log unit,N(CC(O)C)(CC(O)C)CCCCC,nr2,25,?C
CCN(CC)CCCCCC#N,1-cyano-5-diethylaminopentane,10.46,Log unit,N(CCCCCC#N)(CC)CC,nr2,25,?C
NCCCCCN,"1,5-diamino-pentane",9.95,Log unit,NCCCCCN,nr2,25,?C
NCCCCC[NH3+],"1,5-diamino-pentane",9.43,Log unit,NCCCCC[NH3+],nr2,25,?C
CC(C)C(C(C)C)N(C)C,"2,4-dimethyl-3-dimethylaminopentane",10.01,Log unit,N(C)(C)C(C(C)C)C(C)C,nr2,25,?C
CCCCCCN,1-Aminohexane,10.6,Log unit,NCCCCCC,nr2,25,?C
NCCCCCCBr,1-amino-6-bromohexane,10.6,Log unit,NCCCCCCBr,nr2,25,?C
NCCCCCCO,1-amino-6-hydroxyhexane,10.6,Log unit,NCCCCCCO,nr2,25,?C
CCCCNCCCCCCNCCCC,"1,6-bis-n-butylaminohexane",11,Log unit,N(CCCC)CCCCCCNCCCC,nr2,25,?C
CC(C)(C)NCCCCCCNC(C)(C)C,"1,6-bis-t-butylaminohexane",10.7,Log unit,N(C(C)(C)C)CCCCCCNC(C)(C)C,nr2,25,?C
CCCCCCN(CC(C)O)CC(C)O,1-(bis-2-hydroxypropyl)aminohexane,8.5,Log unit,N(CC(O)C)(CC(O)C)CCCCCC,nr2,25,?C
CC(C)NCCCCCCNC(C)C,"1,6-bisisopropylaminohexane",11,Log unit,N(C(C)C)CCCCCCNC(C)C,nr2,25,?C
NCCCCCCN,"1,6-Diaminohexane",10.634,Log unit,NCCCCCCN,nr2,25,?C
NCCCCCC[NH3+],"1,6-Diaminohexane",10.1,Log unit,NCCCCCC[NH3+],nr2,25,?C
CCCCCCNCCCCCC,1-hexylaminohexane,11.01,Log unit,N(CCCCCC)CCCCCC,nr2,25,?C
CCCCCCCN,1-Aminoheptane,10.66,Log unit,NCCCCCCC,nr2,25,?C
CCCCCC(C)N,2-AMINOHEPTANE,10.735,Log unit,NC(C)CCCCC,nr2,25,?C
CCCCCC(C)(C)N,2-amino-2-methylheptane,10.635,Log unit,NC(C)(C)CCCCC,nr2,25,?C
CC(C)CCCC(C)N,2-Amino-6-methylheptane,10.28,Log unit,NC(C)CCCC(C)C,nr2,25,?C
CCCCCC(C)NC,2-Methylaminoheptane,10.905,Log unit,N(C)C(C)CCCCC,nr2,25,?C
CCCCCCCCN,1-Aminooctane,10.61,Log unit,NCCCCCCCC,nr2,25,?C
CCCCCCC(C)N,2-Aminooctane,10.49,Log unit,NC(C)CCCCCC,nr2,25,?C
CC(=[NH+]O)C(C)(C)CCCCCN,"1-amino-7-hydroxyimino-6,6-dimethyloctane",9.12,Log unit,NCCCCCC(C(=[N+]O)C)(C)C,nr2,25,?C
CCCCCC(O)C(C)(C)N,2-amino-3-hydroxy-2-methyl-octane,9.85,Log unit,NC(C(O)CCCCC)(C)C,nr2,25,?C
CCCCCCCCN(CC(C)O)CC(C)O,1-(bis-2-hydroxypropyl)aminooctane,8.3,Log unit,N(CC(O)C)(CC(O)C)CCCCCCCC,nr2,25,?C
NCCCCCCCCN,"1,8-diaminoocatane",10.7,Log unit,NCCCCCCCCN,nr2,25,?C
NCCCCCCCC[NH3+],"1,8-diaminoocatane",10.4,Log unit,NCCCCCCCC[NH3+],nr2,25,?C
CC(=NO)C(C)(C)C(N)C(N)C(C)(C)C(C)=NO,"4,5-diamino-2,7-bishydroxyimino-3,3,6,6-tetramethyloctane",8.04,Log unit,NC(C(C(=NO)C)(C)C)C(N)C(C(=NO)C)(C)C,nr2,25,?C
CCCCCCCCNCCCCCCCC,1-octylaminooctane,11.01,Log unit,N(CCCCCCCC)CCCCCCCC,nr2,25,?C
CCCCCCCCCN,1-Aminononane,10.64,Log unit,NCCCCCCCCC,nr2,25,?C
CCCCCCCCCCN,1-amino-decane,10.64,Log unit,NCCCCCCCCCC,nr2,25,?C
CCCCCCCCCCN(CC(C)O)CC(C)O,1-(bis-2-hydroxypropyl)aminodecane,7.6,Log unit,N(CC(O)C)(CC(O)C)CCCCCCCCCC,nr2,25,?C
CCCCCCCCCCCN,1-Aminoundecane,10.63,Log unit,NCCCCCCCCCCC,nr2,25,?C
CCCCCCCCCCCCN,1-amino-dodecane,10.63,Log unit,NCCCCCCCCCCCC,nr2,25,?C
CCCCCCCCCCCCN(CC(C)O)CC(C)O,1-(bis-2-hydroxypropyl)aminododecane,6.2,Log unit,N(CC(O)C)(CC(O)C)CCCCCCCCCCCC,nr2,25,?C
CCCCCCCCCCCCNCCCCCCCCCCCC,1-dodecylaminododecane,11,Log unit,N(CCCCCCCCCCCC)CCCCCCCCCCCC,nr2,25,?C
CCCCCCCCCCCCCN,1-Aminotridecane,10.63,Log unit,NCCCCCCCCCCCCC,nr2,25,?C
CCCCCCCCCCCCCNCCCCCCCCCCCCC,1-tridecylaminotridecane,11,Log unit,N(CCCCCCCCCCCCC)CCCCCCCCCCCCC,nr2,25,?C