Smiles,Name,pKa,pKa Unit,Ionizable center smiles,IC group,Temperature,Temperature Unit
C[C@H](N)C(=O)N[C@@H](C)C(O)=O,N-L-ALANYL-D-ALANINE2,8.3,Log unit,NC(C)C(=O)NC(C)C(=O)O,,,-
CNC1=CC=CC2=C1C=CC=C2,N-Methyl-1-naphthylamine,3.7,Log unit,N(c1cccc2ccccc12)C,,,-
CNC1=CC=CC=C1,N-Methylaniline,4.4,Log unit,N(c1ccccc1)C,,,-
CN1CCOCC1,n-methylmorpholine,7.13,Log unit,N1(CCOCC1)C,,,-
CN1CCCCC1,n-methylpiperidine,10.19,Log unit,N1(CCCCC1)C,,,-
CC(C)(C)NC1=CC=CC=C1,N-T-BUTYLANILINE,7.1,Log unit,N(C(C)(C)C)c1ccccc1,,,-
[H]N=C(N)OC,O-Methylisourea,9.72,Log unit,N=C(OC)N,,,-
CC1=CC=CC=C1N,o-Toluidine,4.45,Log unit,Nc1ccccc1C,,,-
NCCC1=CC=C(O)C=C1,p-(2-Aminoethyl)phenol,9.3,Log unit,NCCc1ccc(cc1)O,,,-
CC1=CC=C(N)C=C1,p-Toluidine,5.08,Log unit,Nc1ccc(cc1)C,,,-
N[C@@H](CC1=CC=CC=C1)C(O)=O,PHENYLALANINE2,9.31,Log unit,NC(Cc1ccccc1)C(=O)O,,,-
C1=CC2=C(C=C1)C=NN=C2,Phthalazine,3.47,Log unit,n1cc2ccccc2cn1,,,-
C1CNCCN1,piperazine,9.78,Log unit,N1CCNCC1,,,-
C1CCNCC1,piperidine,11.12,Log unit,N1CCCCC1,,,-
OC(=O)[C@@H]1CCCN1,PROLINE2,10.64,Log unit,N1C(C(=O)O)CCC1,,,-
CCCN,Propylamine,10.57,Log unit,NCCC,,,-
C1=CN=CC=N1,Pyrazine,0.6,Log unit,n1ccncc1,,,-
CCOC1=CC(N)=CC=C1,3-ETHOXYANILINE,4.17,Log unit,Nc1cccc(c1)OCC,,,-
CCC1=CC=CN=C1O,3-ETHYL-2-HYDROXYPYRIDINE,5,Log unit,n1c(c(ccc1)CC)O,,,-
CCC1=CC=C(C)N=C1,3-Ethyl-6-methylpyridine,6.51,Log unit,n1cc(ccc1C)CC,,,-
CCC1=CC(N)=CC=C1,3-Ethylaniline,4.7,Log unit,Nc1cccc(c1)CC,,,-
NC1=CC=CC(F)=C1,3-Fluoroaniline,3.58,Log unit,Nc1cccc(c1)F,,,-
FC1=CC=CN=C1,3-FLUOROPYRIDINE,2.97,Log unit,n1cc(ccc1)F,,,-
OC1=CC=CN=C1,3-hydroxypyridine,4.8,Log unit,n1cc(ccc1)O,,,-
NC1=CC=CC(I)=C1,3-Iodoaniline,3.58,Log unit,Nc1cccc(c1)I,,,-
IC1=CC=CN=C1,3-IODOPYRIDINE,3.25,Log unit,n1cc(ccc1)I,,,-
CC(C)C1=CC=CN=C1,3-ISOPROPYLPYRIDINE,5.72,Log unit,n1cc(ccc1)C(C)C,,,-
COC1=CC(N)=CC=C1,3-METHOXYANILINE,4.2,Log unit,Nc1cccc(c1)OC,,,-
COC(=O)C1=CC(N)=CC=C1,3-METHOXYCARBONYLANILINE,3.64,Log unit,Nc1cccc(c1)C(=O)OC,,,-
COC(=O)C1=CC=CN=C1,3-METHOXYCARBONYLPYRIDINE,3.13,Log unit,n1cc(ccc1)C(=O)OC,,,-
COC1=CC=CN=C1,3-METHOXYPYRIDINE,4.91,Log unit,n1cc(ccc1)OC,,,-
C[C@H]1CCCNC1,3-Methylpiperidine,11.07,Log unit,N1CC(CCC1)C,,,-
CC1=CC=CN=C1,3-METHYLPYRIDINE,5.68,Log unit,n1cc(ccc1)C,,,-
CS(=O)(=O)C1=CC(N)=CC=C1,3-METHYLSULFONYLANILINE,2.68,Log unit,Nc1cccc(c1)S(=O)(=O)C,,,-
CSC1=CC=CN=C1,3-METHYLTHIOPYRIDINE,4.42,Log unit,n1cc(ccc1)SC,,,-
NC1=CC(=CC=C1)N(=O)=O,3-nitroaniline,2.46,Log unit,Nc1cc(ccc1)N(=O)=O,,,-
NCCCC1=CC=CC=C1,3-Phenyl-1-propylamine,10.39,Log unit,NCCCc1ccccc1,,,-
NC1=CC(N)=CC=C1,3-Phenylenediamine,4.88,Log unit,Nc1cc(ccc1)N,,,-
O=CC1=CN=CC=C1,3-PYRIDINECARBALDEHYDE,3.8,Log unit,n1cccc(C=O)c1,,,-
CC(C)(C)C1=CN=CC=C1,3-T-BUTYLPYRIDINE,5.82,Log unit,n1cccc(c1)C(C)(C)C,,,-
C1=CC(=CC=N1)C1=CC=NC=C1,"4,4'-DIPYRIDYL",4.82,Log unit,n1ccc(c2ccncc2)cc1,,,-
N[C@H](CC(F)(F)F)C(O)=O,"4,4,4-TRIFLUORO-2-AMINOBUTANOICACID2",8.17,Log unit,NC(C(=O)O)CC(F)(F)F,,,-
N[C@H](CC(O)=O)C(F)(F)F,"4,4,4-TRIFLUORO-3-AMINOBUTANOICACID2",5.82,Log unit,NC(CC(=O)O)C(F)(F)F,,,-
N1C=NC(=C1C1=CC=CC=C1)C1=CC=CC=C1,"4,5-Diphenylimidazole",5.9,Log unit,n1c[nH]c(c1c1ccccc1)c1ccccc1,,,-
C(N1CCCC1)C1=CC=NC=C1,4-(1-PYRROLIDINYLMETHYL)PYRIDINE,8.16,Log unit,N1(Cc2ccncc2)CCCC1,,,-
CN(C)CCC1=CC=NC=C1,4-(DIMETHYLAMINOETHYL)PYRIDINE,8.7,Log unit,N(CCc1ccncc1)(C)C,,,-
CN(C)CC1=CC=NC=C1,4-(DIMETHYLAMINOMETHYL)PYRIDINE,7.66,Log unit,N(Cc1ccncc1)(C)C,,,-
CNC1=CC=NC=C1,4-(METHYLAMINO)PYRIDINE,9.65,Log unit,n1ccc(cc1)NC,,,-
NC1=CC=C(C=C1)C(F)(F)F,4-(Trifluoromethyl)aniline,2.6,Log unit,Nc1ccc(cc1)C(F)(F)F,,,-
C(CC1=CC=NC=C1)N1CCCC1,4-[2-(N-PYRROLIDINYL)ETHYL]PYRIDINE,9.27,Log unit,N1(CCc2ccncc2)CCCC1,,,-
CC(=O)C1=CC=NC=C1,4-acetylpyridine,3.51,Log unit,n1ccc(cc1)C(=O)C,,,-
CC1=CC(N)=C(C)C=C1O,"4-AMINO-2,5-DIMETHYLPHENOL2",5.28,Log unit,Nc1c(cc(c(c1)C)O)C,,,-
NC1=CC(=CC2=C1C=CC=C2)C(O)=O,4-AMINO-2-NAPHTHOICACID2,4.46,Log unit,Nc1cc(cc2ccccc12)C(=O)O,,,-
CC1=CN=CC(C)=C1N,"4-AMINO-3,5-DIMETHYLPYRIDINE",9.54,Log unit,n1cc(c(c(c1)C)N)C,,,-
NC1=C(CBr)C=NC=C1,4-AMINO-3-BROMOMETHYLPYRIDINE,7.47,Log unit,n1cc(c(cc1)N)CBr,,,-
NC1=C(Br)C=NC=C1,4-AMINO-3-BROMOPYRIDINE,7.04,Log unit,n1cc(c(cc1)N)Br,,,-
CCC1=C(N)C=CN=C1,4-AMINO-3-ETHYLPYRIDINE,9.51,Log unit,n1cc(c(cc1)N)CC,,,-
CC(C)C1=C(N)C=CN=C1,4-AMINO-3-ISOPROPYLPYRIDINE,9.54,Log unit,n1cc(c(cc1)N)C(C)C,,,-
CC1=C(N)C=CN=C1,4-Amino-3-methylpyridine,9.43,Log unit,n1cc(c(cc1)N)C,,,-
NC1=CC=C(C=C1)C(O)=O,4-AMINOBENZOICACID2,2.38,Log unit,Nc1ccc(cc1)C(=O)O,,,-
COC(=O)C1=CC=C(N)C=C1,4-AMINOBENZOICACIDMETHYLESTER,2.45,Log unit,Nc1ccc(cc1)C(=O)OC,,,-
NC1=CC=C(C=C1)C#N,4-Aminobenzonitrile,1.74,Log unit,Nc1ccc(cc1)C#N,,,-
NC1=CC=C(C=C1)C(=O)C1=CC=CC=C1,4-Aminobenzophenone,2.15,Log unit,Nc1ccc(cc1)C(=O)c1ccccc1,,,-
NC1=CC=C(C=C1)C1=CC=CC=C1,4-Aminobiphenyl,4.27,Log unit,Nc1ccc(cc1)c1ccccc1,,,-
NCCCC(O)=O,4-AMINOBUTANOICACID2,10.56,Log unit,NCCCC(=O)O,,,-
N[C@H]1CONC1=O,4-AMINOISOXAZOLIDINE-3-ONE,7.4,Log unit,NC1C(=O)NOC1,,,-
C[C@H](N)CCC(O)=O,4-AMINOPENTANOICACID2,10.46,Log unit,NC(C)CCC(=O)O,,,-
[NH2:5][C:4]1=[CH:6][CH:7]=[N:1][CH:2]=[CH:3]1,4-aminopyridine,9.11,Log unit,n1ccc(N)cc1,,,-
NC1=CC=C(C(O)=O)C(O)=C1,4-AMINOSALICYLICACID2,3.92,Log unit,OC(=O)c1c(cc(cc1)N)O,,,-
NC1=CC=C(Br)C=C1,4-Bromoaniline,3.88,Log unit,Nc1ccc(cc1)Br,,,-
BrC1=CC=NC=C1,4-Bromopyridine,3.71,Log unit,n1ccc(cc1)Br,,,-
NC1=C(C=C(Cl)C=C1)N(=O)=O,4-CHLORO-2-NITROANILINE,-1.1,Log unit,Nc1ccc(cc1N(=O)=O)Cl,,,-
CNC1=CC=C(Cl)C=C1,4-Chloro-N-methylaniline,3.9,Log unit,N(c1ccc(cc1)Cl)C,,,-
CC1=C(N)C=CC(Cl)=C1,4-CHLORO-O-TOLUIDINE,3.38,Log unit,Nc1ccc(cc1C)Cl,,,-
NC1=CC=C(Cl)C=C1,4-chloroaniline,3.99,Log unit,Nc1ccc(cc1)Cl,,,-
ClC1=CC=NC=C1,4-CHLOROPYRIDINE,3.83,Log unit,n1ccc(cc1)Cl,,,-
N#CC1=CC=NC=C1,4-Cyanopyridine,1.9,Log unit,n1ccc(cc1)C#N,,,-
CN(C)C1=CC=C(C=O)C=C1,4-Dimethylaminobenzaldehyde,1.65,Log unit,N(c1ccc(cc1)C=O)(C)C,,,-
CCOC1=CC=C(N)C=C1,4-ETHOXYANILINE,5.25,Log unit,Nc1ccc(cc1)OCC,,,-
CCOC1=CC=NC=C1,4-ETHOXYPYRIDINE,6.67,Log unit,n1ccc(cc1)OCC,,,-
CCC1=CC=C(N)C=C1,4-ethylaniline,5,Log unit,Nc1ccc(cc1)CC,,,-
CCC1=CC=NC=C1,4-ETHYLPYRIDINE,5.87,Log unit,n1ccc(cc1)CC,,,-
NC1=CC=C(F)C=C1,4-FLUOROANILINE,4.65,Log unit,Nc1ccc(cc1)F,,,-
OC1=C(C=O)C=CN=C1,4-FORMYL-3-HYDROXYPYRIDINE,4.05,Log unit,n1cc(c(cc1)C=O)O,,,-
COC1=C(C=O)C=CN=C1,4-FORMYL-3-METHOXYPYRIDINE,4.45,Log unit,n1cc(c(cc1)C=O)OC,,,-
OCC1=CNC=N1,4-HYDROXYMETHYLIMIDAZOLE,6.38,Log unit,n1c[nH]cc1CO,,,-
NC1=CC=C(I)C=C1,4-IODOANILINE,3.82,Log unit,Nc1ccc(cc1)I,,,-
CC(C)C1=CC=NC=C1,4-Isopropylpyridine,6.02,Log unit,n1ccc(cc1)C(C)C,,,-
COC1=CC=C(N)C=C1,4-METHOXYANILINE,5.36,Log unit,Nc1ccc(cc1)OC,,,-
COC(=O)C1=CC=C(N)C=C1,4-METHOXYCARBONYLANILINE,2.38,Log unit,Nc1ccc(cc1)C(=O)OC,,,-
COC(=O)C1=CC=NC=C1,4-Methoxycarbonylpyridine,6.47,Log unit,n1ccc(cc1)C(=O)OC,,,-
COC1=CC=NC=C1,4-METHOXYPYRIDINE,6.47,Log unit,n1ccc(cc1)OC,,,-
CC1=CC=NC(=C1)C1=CC(C)=CC=N1,"4-METHYL-2,2'-(4-METHYLPYRIDYL)PYRIDINE",5.32,Log unit,n1ccc(cc1c1nccc(c1)C)C,,,-
CC1=CC=CC2=C1N=CN2,4-METHYLBENZIMIDAZOLE,5.65,Log unit,n1c[nH]c2cccc(c12)C,,,-
CC1=CNC=N1,4-Methylimidazole,7.55,Log unit,n1c[nH]cc1C,,,-
CC1=CC=NC=C1,4-Methylpyridine,6,Log unit,n1ccc(cc1)C,,,-
CS(=O)(=O)C1=CC=C(N)C=C1,4-METHYLSULFONYLANILINE,1.48,Log unit,Nc1ccc(cc1)S(=O)(=O)C,,,-
CC1=CSC=N1,4-METHYLTHIAZOLE,3.16,Log unit,n1cscc1C,,,-
CSC1=CC=C(N)C=C1,4-METHYLTHIOANILINE,4.4,Log unit,Nc1ccc(cc1)SC,,,-
CSC1=CC=NC=C1,4-METHYLTHIOPYRIDINE,5.94,Log unit,n1ccc(cc1)SC,,,-
NC1=CC=C(C=C1)N(=O)=O,4-nitroaniline,1.01,Log unit,Nc1ccc(cc1)N(=O)=O,,,-
NC1=CC=C(N)C=C1,4-Phenylenediamine,6.08,Log unit,Nc1ccc(cc1)N,,,-
N1C=NC(=C1)C1=CC=CC=C1,4-Phenylimidazole,6.1,Log unit,n1c[nH]cc1c1ccccc1,,,-
O=CC1=CC=NC=C1,4-PYRIDINECARBALDEHYDE,4.74,Log unit,n1ccc(C=O)cc1,,,-
CC(C)(C)C1=CC=C(N)C=C1,4-T-BUTYLANILINE,3.78,Log unit,Nc1ccc(C(C)(C)C)cc1,,,-
CC(C)(C)C1=CC=NC=C1,4-T-BUTYLPYRIDINE,5.99,Log unit,n1ccc(cc1)C(C)(C)C,,,-
C=CC1=CC=NC=C1,4-VINYLPYRIDINE,5.62,Log unit,n1ccc(cc1)C=C,,,-
CC1=CC2=C(C=C1C)N=CN2,"5,6-Dimethylbenzimidazole",5.96,Log unit,n1c[nH]c2cc(c(cc12)C)C,,,-
NCCCCC(O)=O,5-AMINOPENTANOICACID2,9.76,Log unit,NCCCCC(=O)O,,,-
NC1=CC=C(O)C(=C1)C(O)=O,5-AMINOSALICYLICACID2,5.84,Log unit,Nc1cc(c(cc1)O)C(=O)O,,,-
CC1=C(N)C=C(Cl)C=C1,5-CHLORO-O-TOLUIDINE,3.85,Log unit,Nc1cc(ccc1C)Cl,,,-
CC1=CC2=C(NC=N2)C=C1,5-Methylbenzimidazole,5.78,Log unit,n1c[nH]c2ccc(cc12)C,,,-
CC1=CC=CC2=C1C=CC=N2,5-Methylquinoline,4.62,Log unit,n1cccc2c(cccc12)C,,,-
CC1=CN=CS1,5-METHYLTHIAZOLE,3.03,Log unit,n1csc(c1)C,,,-
NCCCCCC(O)=O,6-AMINOHEXANOICACID2,10.8,Log unit,NCCCCCC(=O)O,,,-
CC1=C(N)C(Cl)=CC=C1,6-Chloro-o-toluidine,3.62,Log unit,Nc1c(cccc1C)Cl,,,-
NC1=CC=CC2=C1C=C(O)C=C2,8-Amino-2-naphthol,4.2,Log unit,Nc1cccc2ccc(cc12)O,,,-
COC(=O)C1=CC=CC=C1N,2-AMINOBENZOICACIDMETHYLESTER,2.36,Log unit,Nc1c(cccc1)C(=O)OC,,,-
NC1=C(C=CC=C1)C1=CC=CC=C1,2-Aminobiphenyl,3.78,Log unit,Nc1ccccc1c1ccccc1,,,-
CC[C@@H](N)C(O)=O,2-AMINOBUTANOICACID2,9.83,Log unit,NC(CC)C(=O)O,,,-
NCCS(O)(=O)=O,2-AMINOETHANESULFONICACID2,9.06,Log unit,NCCS(=O)(=O)O,,,-
NCCO,2-aminoethanol,9.5,Log unit,NCCO,,,-
CCCC[C@@H](N)C(O)=O,2-AMINOHEXANOICACID2,9.83,Log unit,NC(CCCC)C(=O)O,,,-
CCC[C@@H](N)C(O)=O,2-AMINOPENTANOICACID2,9.81,Log unit,NC(CCC)C(=O)O,,,-
NC1=NC=CC=C1,2-Aminopyridine,6.71,Log unit,n1c(cccc1)N,,,-
CC1=CC2=C(C=C1)N=C(CC1=CC=CC=C1)N2,2-BENZYL-6-METHYLBENZIMIDAZOLE,6,Log unit,n1c([nH]c2cc(ccc12)C)Cc1ccccc1,,,-
C(C1=CC=CC=C1)C1=NC=CC=C1,2-Benzylpyridine,5.13,Log unit,n1c(cccc1)Cc1ccccc1,,,-
C([C@H]1CCCN1)C1=CC=CC=C1,2-BENZYLPYRROLIDINE,10.31,Log unit,N1C(CCC1)Cc1ccccc1,,,-
NC1=C(Br)C=C(C=C1N(=O)=O)N(=O)=O,"2-Bromo-4,6-dinitroaniline",-6.94,Log unit,Nc1c(cc(cc1Br)N(=O)=O)N(=O)=O,,,-
NC1=CC=CC=C1Br,2-BROMOANILINE,2.53,Log unit,Nc1c(cccc1)Br,,,-
BrC1=NC=CC=C1,2-Bromopyridine,0.71,Log unit,n1c(cccc1)Br,,,-
CC[C@@H](C)N,2-Butanamine,10.56,Log unit,NC(CC)C,,,-
CCCCC1=CCCN1C,2-BUTYL-1-METHYL-2-PYRROLINE,11.84,Log unit,N1(CCC=C1CCCC)C,,,-
NC1=C(C=CC=C1Cl)N(=O)=O,2-Chloro-6-nitroaniline,-2.41,Log unit,Nc1c(cccc1N(=O)=O)Cl,,,-
NC1=C(Cl)C=CC=C1,2-chloroaniline,2.64,Log unit,Nc1ccccc1Cl,,,-
ClC1=CC=CC=N1,2-chloropyridine,0.49,Log unit,n1ccccc1Cl,,,-
N#CC1=NC=CC=C1,2-cyanopyridine,-0.26,Log unit,n1c(cccc1)C#N,,,-
C1CC=C(N1)C1CCCCC1,2-CYCLOHEXYL-2-PYRROLINE,7.91,Log unit,N1C(=CCC1)C1CCCCC1,,,-
C1CN[C@H](C1)C1CCCCC1,2-CYCLOHEXYLPYRROLIDINE,10.76,Log unit,N1C(CCC1)C1CCCCC1,,,-
CCOC1=CC=CC=C1N,2-ETHOXYANILINE,4.47,Log unit,Nc1ccccc1OCC,,,-
CCC1=CCCN1,2-ETHYL-2-PYRROLINE,7.87,Log unit,N1C(=CCC1)CC,,,-
CCC1=CC=CC=C1N,2-Ethylaniline,4.42,Log unit,Nc1ccccc1CC,,,-
CCC1=NC2=C(N1)C=CC=C2,2-Ethylbenzimidazole,6.18,Log unit,n1c([nH]c2ccccc12)CC,,,-
CCC1=NC=CN1,2-Ethylimidazole,8,Log unit,n1c([nH]cc1)CC,,,-
CCC1=NC=CC=C1,2-ETHYLPYRIDINE,5.89,Log unit,n1c(cccc1)CC,,,-
NC1=CC=CC=C1F,2-Fluoroaniline,3.2,Log unit,Nc1ccccc1F,,,-
FC1=NC=CC=C1,2-FLUOROPYRIDINE,-0.44,Log unit,n1c(cccc1)F,,,-
OC1=CC=CN=C1C=O,2-FORMYL-3-HYDROXYPYRIDINE,3.4,Log unit,n1c(c(ccc1)O)C=O,,,-
COC1=CC=CN=C1C=O,2-FORMYL-3-METHOXYPYRIDINE,3.89,Log unit,n1c(c(ccc1)OC)C=O,,,-
CC1=CC(O)=NC=C1,2-Hydroxy-4-methylpyridine,4.53,Log unit,n1c(cc(cc1)C)O,,,-
OC1=NC2=C(N1)C=CC=C2,2-Hydroxybenzimidazole,2.4,Log unit,n1c([nH]c2ccccc12)O,,,-
CN1C(CO)=NC2=C1C=CC=C2,2-HYDROXYMETHYL-1-METHYLBENZIMIDAZOLE,5.55,Log unit,n1c(n(c2ccccc12)C)CO,,,-
OCC1=NC2=C(N1)C=CC=C2,2-HYDROXYMETHYLBENZIMIDAZOLE,5.6,Log unit,n1c([nH]c2ccccc12)CO,,,-
NC1=CC=CC=C1I,2-Iodoaniline,2.54,Log unit,Nc1ccccc1I,,,-
IC1=NC=CC=C1,2-Iodopyridine,1.82,Log unit,n1c(cccc1)I,,,-
CC(C)C1=NC2=C(N1)C=CC=C2,2-ISOPROPYLBENZIMIDAZOLE,6.21,Log unit,n1c([nH]c2ccccc12)C(C)C,,,-
CC(C)C1=NC=CC=C1,2-Isopropylpyridine,5.83,Log unit,n1c(cccc1)C(C)C,,,-
NCCS,2-Mercaptoethylamine,10.53,Log unit,NCCS,,,-
COC1=CC=CC=C1N,2-Methoxyaniline,4.53,Log unit,Nc1ccccc1OC,,,-
COC(=O)C1=CC=CC=C1N,2-METHOXYCARBONYLANILINE,2.23,Log unit,Nc1ccccc1C(=O)OC,,,-
COC(=O)CC1=NC2=C(N1)C=CC=C2,2-METHOXYCARBONYLMETHYLBENZIMIDAZOLE,4.6,Log unit,n1c([nH]c2ccccc12)CC(=O)OC,,,-
COC(=O)C1=NC=CC=C1,2-METHOXYCARBONYLPYRIDINE,2.21,Log unit,n1c(cccc1)C(=O)OC,,,-
COCCN,2-Methoxyethylamine,9.45,Log unit,NCCOC,,,-
COC1=NC=CC=C1,2-METHOXYPYRIDINE,3.06,Log unit,n1c(cccc1)OC,,,-
CC1=NC2=C(N1)C=C(C(=C2)N(=O)=O)N(=O)=O,"2-METHYL-5,6-DINITROBENZIMIDAZOLE",0.7,Log unit,n1c([nH]c2cc(c(cc12)N(=O)=O)N(=O)=O)C,,,-
CC1=NC2=C(N1)C=CC=C2,2-methylbenzimidazole,6.19,Log unit,n1c([nH]c2ccccc12)C,,,-
CC1=NC=CN1,2-Methylimidazole,7.85,Log unit,n1c([nH]cc1)C,,,-
C[C@@H]1CCCCN1,2-METHYLPIPERIDINE,10.95,Log unit,N1C(CCCC1)C,,,-
CC1=NC=CC=C1,2-METHYLPYRIDINE,5.96,Log unit,n1c(cccc1)C,,,-
CC1=NC=CS1,2-Methylthiazole,3.4,Log unit,n1c(scc1)C,,,-
CSC1=NC=CC=C1,2-METHYLTHIOPYRIDINE,3.59,Log unit,n1c(cccc1)SC,,,-
NC1=CC2=C(C=CC=C2)C=C1,2-NAPHTHYLAMINE,4.11,Log unit,Nc1cc2ccccc2cc1,,,-
NC1=C(C=CC=C1)N(=O)=O,2-nitroaniline,-0.28,Log unit,Nc1c(cccc1)N(=O)=O,,,-
N1C2=C(C=CC=C2)N=C1C1=CC=CC=C1,2-PHENYLBENZIMIDAZOLE,5.23,Log unit,n1c([nH]c2ccccc12)c1ccccc1,,,-
NC1=CC=CC=C1N,2-PHENYLENEDIAMINE,4.47,Log unit,Nc1c(cccc1)N,,,-
NCCC1=CC=CC=C1,2-phenylethylamine,9.83,Log unit,NCCc1ccccc1,,,-
N1C=CN=C1C1=CC=CC=C1,2-Phenylimidazole,6.48,Log unit,n1c([nH]cc1)c1ccccc1,,,-
CCCC1=NC=CC=C1,2-Propylpyridine,6.3,Log unit,n1c(cccc1)CCC,,,-
O=CC1=CC=CC=N1,2-Pyridinecarbaldehyde,3.84,Log unit,n1ccccc1C=O,,,-
CC(C)(C)C1=CC=CC=N1,2-T-BUTYLPYRIDINE,5.76,Log unit,n1ccccc1C(C)(C)C,,,-
C=CC1=NC=CC=C1,2-VINYLPYRIDINE,4.98,Log unit,n1c(cccc1)C=C,,,-
CC1=C(C)C2=C(N=C1)C(O)=CC=C2,"3,4-DIMETHYL-8-HYDROXYQUINOLINE",5.8,Log unit,n1cc(c(c2cccc(c12)O)C)C,,,-
CC1=C(C)C=C(N)C=C1,"3,4-Dimethylaniline",5.17,Log unit,Nc1cc(c(cc1)C)C,,,-
CC1=C(C)C=NC=C1,"3,4-dimethylpyridine",6.47,Log unit,n1cc(c(cc1)C)C,,,-
NC1=CC(Br)=CC(Br)=C1,"3,5-DIBROMOANILINE",2.35,Log unit,Nc1cc(cc(c1)Br)Br,,,-
NC1=CC(Cl)=CC(Cl)=C1,"3,5-Dichloroaniline",2.37,Log unit,Nc1cc(cc(c1)Cl)Cl,,,-
NC1=CC(I)=CC(I)=C1,"3,5-DIIODOANILINE",2.37,Log unit,Nc1cc(cc(c1)I)I,,,-
COC1=CC(OC)=CC(N)=C1,"3,5-Dimethoxyaniline",3.86,Log unit,Nc1cc(cc(c1)OC)OC,,,-
CC1=CC(N)=CC(C)=C1,"3,5-Dimethylaniline",4.76,Log unit,Nc1cc(cc(c1)C)C,,,-
CC1=CC(C)=CN=C1,"3,5-dimethylpyridine",6.09,Log unit,n1cc(cc(c1)C)C,,,-
NC1=CC(=CC(=C1)N(=O)=O)N(=O)=O,"3,5-dinitroaniline",0.23,Log unit,Nc1cc(cc(c1)N(=O)=O)N(=O)=O,,,-
C(N1CCCC1)C1=CN=CC=C1,3-(1-Pyrrolidinylmethyl)pyridine,8.36,Log unit,N1(Cc2cnccc2)CCCC1,,,-
CN(C)CCC1=CN=CC=C1,3-(DIMETHYLAMINOETHYL)PYRIDINE,8.86,Log unit,N(CCc1cccnc1)(C)C,,,-
CN(C)CC1=CN=CC=C1,3-(DIMETHYLAMINOMETHYL)PYRIDINE,8,Log unit,N(Cc1cccnc1)(C)C,,,-
NC1=CC(=CC=C1)C(F)(F)F,3-(Trifluoromethyl)aniline,3.5,Log unit,Nc1cc(ccc1)C(F)(F)F,,,-
C(CC1=CC=CN=C1)N1CCCC1,3-[2-(N-PYRROLIDINYL)ETHYL]PYRIDINE,9.28,Log unit,N1(CCc2cccnc2)CCCC1,,,-
CC(=O)NC1=CC=CN=C1,3-Acetamidopyridine,4.37,Log unit,n1cc(NC(=O)C)ccc1,,,-
CC(=O)C1=CC=CN=C1,3-ACETYLPYRIDINE,3.26,Log unit,n1cc(ccc1)C(=O)C,,,-
NC1=CC2=C(C=CC=C2)C(=C1)C(O)=O,3-AMINO-1-NAPHTHOICACID2,4.39,Log unit,Nc1cc(c2ccccc2c1)C(=O)O,,,-
NCCCO,3-Amino-1-propanol,9.96,Log unit,NCCCO,,,-
NC1=CC(=CC=C1)C(O)=O,3-AMINOBENZOICACID2,4.79,Log unit,Nc1cccc(c1)C(=O)O,,,-
COC(=O)C1=CC=CC(N)=C1,3-AMINOBENZOICACIDMETHYLESTER,3.58,Log unit,Nc1cccc(c1)C(=O)OC,,,-
NC1=CC=CC(=C1)C#N,3-Aminobenzonitrile,1.74,Log unit,Nc1cc(ccc1)C#N,,,-
NC1=CC=CC(=C1)C1=CC=CC=C1,3-AMINOBIPHENYL,4.18,Log unit,Nc1cccc(c1)c1ccccc1,,,-
C[C@H](N)CC(O)=O,3-AMINOBUTANOICACID2,10.14,Log unit,NC(C)CC(=O)O,,,-
CC[C@H](N)CC(O)=O,3-AMINOPENTANOICACID2,10.4,Log unit,NC(CC)CC(=O)O,,,-
NCCC(O)=O,3-AMINOPROPANOICACID2,10.23,Log unit,NCCC(=O)O,,,-
NC1=CC=CN=C1,3-Aminopyridine,6.03,Log unit,n1cc(ccc1)N,,,-
CNC1=C(Br)C=NC=C1,3-BROMO-4-METHYLAMINOPYRIDINE,7.49,Log unit,n1cc(c(cc1)NC)Br,,,-
NC1=CC=CC(Br)=C1,3-BROMOANILINE,3.53,Log unit,Nc1cc(ccc1)Br,,,-
BrC1=CC=CN=C1,3-Bromopyridine,2.85,Log unit,n1cc(ccc1)Br,,,-
BrC1=CC2=C(C=CC=C2)N=C1,3-Bromoquinoline,2.69,Log unit,n1cc(cc2ccccc12)Br,,,-
CC1=C(Cl)C=C(N)C=C1,3-Chloro-4-methylaniline,4.05,Log unit,Nc1ccc(c(c1)Cl)C,,,-
CC1=C(N)C=CC=C1Cl,3-Chloro-o-toluidine,2.49,Log unit,Nc1cccc(c1C)Cl,,,-
NC1=CC(Cl)=CC=C1,3-chloroaniline,3.52,Log unit,Nc1cccc(c1)Cl,,,-
ClC1=CN=CC=C1,3-chloropyridine,2.48,Log unit,n1cccc(c1)Cl,,,-
N#CC1=CC=CN=C1,3-Cyanopyridine,1.45,Log unit,n1cc(ccc1)C#N,,,-
OC(=O)C(Br)(Br)Br,TRIBROMOACETICACID,-0.15,Log unit,OC(=O)C(Br)(Br)Br,,,-
OC(=O)C(Cl)(Cl)Cl,TRICHLOROACETICACID,0.52,Log unit,OC(=O)C(Cl)(Cl)Cl,,,-
OC(=O)C(Cl)=C(Cl)Cl,TRICHLOROACRYLICACID,1.15,Log unit,OC(=O)C(=C(Cl)Cl)Cl,,,-
OC(=O)C(F)(F)F,TRIFLUOROACETICACID,0.6,Log unit,OC(=O)C(F)(F)F,,,-
OC(=O)C(F)=C(F)F,TRIFLUOROACRYLICACID,1.79,Log unit,OC(=O)C(=C(F)F)F,,,-
OC(=O)C(C1=CC=CC=C1)(C1=CC=CC=C1)C1=CC=CC=C1,TRIPHENYLACETICACID,3.96,Log unit,OC(=O)C(c1ccccc1)(c1ccccc1)c1ccccc1,,,-
N[C@@H](CC1=CNC2=CC=CC=C12)C(O)=O,TRYPTOPHAN1,2.46,Log unit,OC(=O)C(N)Cc1c[nH]c2c1cccc2,,,-
N[C@@H](CC1=CC=C(O)C=C1)C(O)=O,TYROSINE1,2.2,Log unit,OC(=O)C(N)Cc1ccc(cc1)O,,,-
N[C@@H](CC1=CC=C(O)C=C1)C(O)=O,TYROSINE3,10.46,Log unit,Oc1ccc(CC(N)C(=O)O)cc1,,,-
O=C1NC2=C(N1)C(=O)NC(=O)N2,URICACID,5.4,Log unit,[nH]1c(=O)[nH]c2c1c(=O)[nH]c(=O)[nH]2,,,-
CC(C)[C@H](N)C(O)=O,VALINE1,2.29,Log unit,OC(=O)C(N)C(C)C,,,-
N[C@H]1CCCC[C@H]1N,"1,2-CYCLOHEXANEDIAMINE",9.84,Log unit,NC1CCCCC1N,,,-
CN1C(C)=NC2=C1C=CC(=C2)N(=O)=O,"1,2-DIMETHYL-5-NITROBENZIMIDAZOLE",4.4,Log unit,n1c(n(c2ccc(cc12)N(=O)=O)C)C,,,-
CN1C(C)=NC2=C1C=C(C=C2)N(=O)=O,"1,2-DIMETHYL-6-NITROBENZIMIDAZOLE",4.2,Log unit,n1c(n(c2cc(ccc12)N(=O)=O)C)C,,,-
CN1C(C)=NC2=C1C=CC=C2,"1,2-DIMETHYLBENZIMIDAZOLE",6.55,Log unit,n1c(n(c2ccccc12)C)C,,,-
N[C@H]1C[C@@H](N)C[C@H](N)C1,"1,3,5-CYCLOHEXANETRIAMINE",10.4,Log unit,NC1CC(CC(C1)N)N,,,-
NCC(CN)CN,"1,3-DIAMINO-2-AMINOMETHYLPROPANE",10.38,Log unit,NCC(CN)CN,,,-
CN1CCCC=C1C,"1,4,5,6-TETRAHYDRO-1,2-DIMETHYLPYRIDINE",11.38,Log unit,N1(C(=CCCC1)C)C,,,-
CC1=CCCCN1,"1,4,5,6-TETRAHYDRO-2-METHYLPYRIDINE",9.53,Log unit,N1C(=CCCC1)C,,,-
NCCCCN,"1,4-BUTANEDIAMINE",10.82,Log unit,NCCCCN,,,-
NCCCCCN,"1,5-pentanediamine",10.92,Log unit,NCCCCCN,,,-
OCCN1C=NC2=C1C=CC=C2,1-(2-HYDROXYETHYL)BENZIMIDAZOLE,5.26,Log unit,n1cn(c2ccccc12)CCO,,,-
C=CCN1CCCCC1,1-ALLYLPIPERIDINE,9.65,Log unit,N1(CC=C)CCCCC1,,,-
NC1(CCCCCC1)C(O)=O,1-AMINO-1-CYCLOHEPTANECARBOXYLICACID2,10.46,Log unit,NC1(CCCCCC1)C(=O)O,,,-
NC1(CCCCC1)C(O)=O,1-AMINO-1-CYCLOHEXANECARBOXYLICACID2,10.03,Log unit,NC1(CCCCC1)C(=O)O,,,-
CCC(CN)(CN)CN,1-AMINO-2-DI(AMINOMETHYL)BUTANE,9.66,Log unit,NCC(CN)(CN)CC,,,-
CC(C)CCN,1-Amino-3-methylbutane,10.64,Log unit,NCCC(C)C,,,-
C[C@@H](N)S(O)(=O)=O,1-AMINOETHANESULFONICACID2,9.06,Log unit,NC(C)S(=O)(=O)O,,,-
C(N1CCCC1)C1=CC=CC=C1,1-Benzylpyrrolidine,9.51,Log unit,N1(CCCC1)Cc1ccccc1,,,-
CC1=NC2=C(C=CC=C2)N1CCC#N,1-CYANOETHYL-2-METHYLBENZIMIDAZOLE,5.7,Log unit,n1c(n(c2ccccc12)CCC#N)C,,,-
N#CCCN1C=NC2=C1C=CC=C2,1-CYANOETHYLBENZIMIDAZOLE,4.3,Log unit,n1cn(c2ccccc12)CCC#N,,,-
CCN1CCC=C1C,1-ETHYL-2-METHYL-2-PYRROLINE,11.84,Log unit,N1(CCC=C1C)CC,,,-
CCN1CCCC[C@@H]1C,1-ETHYL-2-METHYLPIPERIDINE,10.66,Log unit,N1(C(CCCC1)C)CC,,,-
CCN1C=NC2=C1C=CC=C2,1-ETHYLBENZIMIDAZOLE,5.59,Log unit,n1cn(c2ccccc12)CC,,,-
CCN1C=CN=C1,1-ETHYLIMIDAZOLE,7.3,Log unit,n1cn(cc1)CC,,,-
OCN1C=NC2=C1C=CC=C2,1-HYDROXYMETHYLBENZIMIDAZOLE,5.41,Log unit,n1cn(c2ccccc12)CO,,,-
CC(C)N1C=NC2=C1C=CC=C2,1-ISOPROPYLBENZIMIDAZOLE,5.71,Log unit,n1cn(c2ccccc12)C(C)C,,,-
CN1CC=CC1,1-METHYL-3-PYRROLINE,9.88,Log unit,N1(CC=CC1)C,,,-
CN1C=NC2=C1C=CC=C2N(=O)=O,1-METHYL-4-NITROBENZIMIDAZOLE,3.86,Log unit,n1cn(c2cccc(c12)N(=O)=O)C,,,-
CN1C=NC(=C1)C1=CC=CC=C1,1-METHYL-4-PHENYLIMIDAZOLE,5.78,Log unit,n1cn(cc1c1ccccc1)C,,,-
CN1C=NC2=C1C=CC(=C2)N(=O)=O,1-METHYL-5-NITROBENZIMIDAZOLE,3.4,Log unit,n1cn(c2ccc(cc12)N(=O)=O)C,,,-
CN1C=NC=C1N(=O)=O,1-METHYL-5-NITROIMIDAZOLE,2.13,Log unit,n1cn(c(c1)N(=O)=O)C,,,-
CN1C=NC2=C1C=C(C=C2)N(=O)=O,1-METHYL-6-NITROBENZIMIDAZOLE,3.67,Log unit,n1cn(c2cc(ccc12)N(=O)=O)C,,,-
CN1C=NC2=C1C(=CC=C2)N(=O)=O,1-METHYL-7-NITROBENZIMIDAZOLE,3.25,Log unit,n1cn(c2c(cccc12)N(=O)=O)C,,,-
CN1C=NC2=C1C=CC=C2,1-methylbenzimidazole,5.54,Log unit,n1cn(c2ccccc12)C,,,-
CN1C=CN=C1,1-methylimidazole,7.06,Log unit,n1cn(cc1)C,,,-
CN1CCCC1,1-METHYLPYRROLIDINE,10.46,Log unit,N1(CCCC1)C,,,-
CCCCN1C=NC2=C1C=C(C)C=C2,1-N-BUTYLBENZIMIDAZOLE,5.29,Log unit,n1cn(c2cc(ccc12)C)CCCC,,,-