Smiles,Name,pKa,pKa Unit,Ionizable center smiles,IC group,Temperature,Temperature Unit
CCCN1C=NC2=C1C=CC=C2,1-N-PROPYLBENZIMIDAZOLE,5.44,Log unit,n1cn(c2ccccc12)CCC,,,-
NC1=CC=CC2=C1C=CC=C2,1-naphthylamine,3.92,Log unit,Nc1cccc2ccccc12,,,-
CC1=CC(C)=C(C)N=C1C,"2,3,5,6-TETRAMETHYLPYRIDINE",7.9,Log unit,n1c(c(cc(c1C)C)C)C,,,-
CC1=CC=C(C)C(C)=N1,"2,3,6-TRIMETHYLPYRIDINE",7.6,Log unit,n1c(c(ccc1C)C)C,,,-
C[C@H](N)[C@H](C)N,"2,3-BUTANEDIAMINE",10,Log unit,NC(C(C)N)C,,,-
CC1=CC=CC(N)=C1C,"2,3-Dimethylaniline",4.7,Log unit,Nc1c(c(ccc1)C)C,,,-
CC1=NC(C)=C(C)N1,"2,4,5-Trimethylimidazole",8.92,Log unit,n1c([nH]c(c1C)C)C,,,-
CC1=CC(C)=C(N)C(C)=C1,"2,4,6-Trimethylaniline",4.38,Log unit,Nc1c(cc(cc1C)C)C,,,-
CC1=CC(C)=NC(C)=C1,"2,4,6-Trimethylpyridine",7.43,Log unit,n1c(cc(cc1C)C)C,,,-
CC1=NC2=C(C=CC=C2O)C(C)=C1,"2,4-DIMETHYL-8-HYDROXYQUINOLINE",6.2,Log unit,n1c(cc(c2cccc(c12)O)C)C,,,-
CC1=CC(C)=C(N)C=C1,"2,4-Dimethylaniline",4.89,Log unit,Nc1c(cc(cc1)C)C,,,-
CC1=NC(C)=CN1,"2,4-Dimethylimidazole",8.38,Log unit,n1c([nH]cc1C)C,,,-
CC1=CC(C)=NC=C1,"2,4-dimethylpyridine",6.74,Log unit,n1c(cc(cc1)C)C,,,-
N1C=C(N=C1C1=CC=CC=C1)C1=CC=CC=C1,"2,4-DIPHENYLIMIDAZOLE",5.64,Log unit,n1c([nH]cc1c1ccccc1)c1ccccc1,,,-
NC1=CN=C(N)C=C1,"2,5-Diaminopyridine",6.48,Log unit,n1c(ccc(c1)N)N,,,-
CC1=CC(N)=C(C)C=C1,"2,5-Dimethylaniline",4.53,Log unit,Nc1c(ccc(c1)C)C,,,-
CC1=CN=C(C)C=C1,"2,5-dimethylpyridine",6.43,Log unit,n1c(ccc(c1)C)C,,,-
CC1=CC=CC(C)=C1N,"2,6-Dimethylaniline",3.95,Log unit,Nc1c(cccc1C)C,,,-
CN1C=NC2=C1C=C(C)C=C2,"2,6-DIMETHYLBENZIMIDAZOLE",6,Log unit,n1cn(c2cc(ccc12)C)C,,,-
C[C@H]1CCC[C@@H](C)N1,"2,6-Dimethylpiperidine",11.07,Log unit,N1C(CCCC1C)C,,,-
CC1=CC=CC(C)=N1,"2,6-dimethylpyridine",6.71,Log unit,n1c(cccc1C)C,,,-
CC1=CC2=C(C=C1)N=C(C)C=C2,"2,6-Dimethylquinoline",5.46,Log unit,n1c(ccc2cc(ccc12)C)C,,,-
C(N1CCCC1)C1=CC=CC=N1,2-(1-PYRROLIDINYLMETHYL)PYRIDINE,8.56,Log unit,N1(Cc2ncccc2)CCCC1,,,-
NCCC1=NC=CC=C1,2-(2-Aminoethyl)pyridine,9.78,Log unit,NCCc1ncccc1,,,-
CNCCC1=NC=CC=C1,2-(2-METHYLAMINOETHYL)PYRIDINE,9.65,Log unit,N(CCc1ncccc1)C,,,-
NCCC1=CNC=N1,2-(4-Imidazolyl)ethylamine,9.76,Log unit,NCCc1nc[nH]c1,,,-
CCN(CC)CCOC(=O)C1=CC=C(N)C=C1,2-(DIETHYLAMINO)ETHYL4-AMINOBENZOATE,8.85,Log unit,N(CC)(CCOC(=O)c1ccc(cc1)N)CC,,,-
CN(C)CCO,2-(Dimethylamino)ethanol,9.26,Log unit,N(C)(C)CCO,,,-
CN(C)CC1=CC=CC=N1,2-(DIMETHYLAMINOMETHYL)PYRIDINE,8.12,Log unit,N(Cc1ncccc1)(C)C,,,-
CNCCO,2-(Methylamino)ethanol,9.88,Log unit,N(CCO)C,,,-
CNCC1=NC(C)=CC=C1,2-(METHYLAMINOMETHYL)-6-METHYLPYRIDINE,9.15,Log unit,N(Cc1nc(ccc1)C)C,,,-
CNCC1=NC=CC=C1,2-(METHYLAMINOMETHYL)PYRIDINE,8.82,Log unit,N(Cc1ncccc1)C,,,-
CN(C)CCC1=CC=CC=N1,2-[2-(Dimethylamino)ethyl]pyridine,8.75,Log unit,N(CCc1ncccc1)(C)C,,,-
C(CC1=NC=CC=C1)N1CCCC1,2-[2-(N-PYRROLIDINYL)ETHYL]PYRIDINE,9.39,Log unit,N1(CCc2ncccc2)CCCC1,,,-
CC(=O)C1=NC=CC=C1,2-acetylpyridine,2.64,Log unit,n1c(cccc1)C(=O)C,,,-
CC[C@H](N)CO,2-Amino-1-butanol,9.52,Log unit,NC(CC)CO,,,-
N[C@@H]1CCCC[C@@H]1C(O)=O,2-AMINO-1-CYCLOHEXANECARBOXYLICACID2,10.21,Log unit,NC1CCCCC1C(=O)O,,,-
C[C@@H](N)CO,2-Amino-1-propanol,9.47,Log unit,NC(C)CO,,,-
NCCSCCO,2-AMINO-2'-HYDROXYDIETHYLSULFIDE,9.27,Log unit,NCCSCCO,,,-
CCC(N)(CC)CO,2-AMINO-2-ETHYL-1-BUTANOL,9.82,Log unit,NC(CC)(CO)CC,,,-
CC(C)(N)CO,2-Amino-2-methyl-1-propanol,9.96,Log unit,NC(CO)(C)C,,,-
CC(C)(N)C(O)=O,2-AMINO-2-METHYLPROPANOICACID2,10.2,Log unit,NC(C(=O)O)(C)C,,,-
NC1=C(O)C=CC=C1C(O)=O,2-AMINO-3-HYDROXYBENZOICACID2,5.19,Log unit,Nc1c(cccc1C(=O)O)O,,,-
CC(C)(S)[C@@H](N)C(O)=O,2-AMINO-3-MERCAPTO-3-METHYLBUTANOICACID2,10.5,Log unit,SC(C)(C(C(=O)O)N)C,,,-
CC1=CC=CN=C1N,2-Amino-3-methylpyridine,7.24,Log unit,n1c(c(ccc1)C)N,,,-
N[C@H](CCS)C(O)=O,2-AMINO-4-MERCAPTOBUTANOICACID2,10.86,Log unit,SCCC(C(=O)O)N,,,-
CC1=CC(N)=NC=C1,2-amino-4-methylpyridine,7.48,Log unit,n1c(cc(cc1)C)N,,,-
CC1=CN=C(N)C=C1,2-AMINO-5-METHYLPYRIDINE,7.22,Log unit,n1c(N)ccc(c1)C,,,-
CC1=CC=CC(N)=N1,2-Amino-6-methylpyridine,7.41,Log unit,n1c(cccc1C)N,,,-
CC[C@@H](NC(=O)CN)C(O)=O,2-AMINO-N-GLYCYLBUTANOICACID2,8.33,Log unit,NCC(=O)NC(CC)C(=O)O,,,-
NCC(N)=O,2-Aminoacetamide,7.95,Log unit,NCC(=O)N,,,-
NC1=CC=CC=C1C(O)=O,2-AMINOBENZOICACID2,4.79,Log unit,OC(=O)c1ccccc1N,,,-
CC(C)C(C(C)C)(C(O)=O)C(O)=O,DIISOPROPYLMALONICACID,2.12,Log unit,OC(=O)C(C(=O)O)(C(C)C)C(C)C,,,-
OC(=O)C(C1=CC=CC=C1)C1=CC=CC=C1,DIPHENYLACETICACID,3.94,Log unit,OC(=O)C(c1ccccc1)c1ccccc1,,,-
CCCC(CCC)(C(O)=O)C(O)=O,DIPROPYLMALONICACID,2.04,Log unit,OC(=O)C(C(=O)O)(CCC)CCC,,,-
CCOC(=O)CS,ETHYL2-MERCAPTOACETATE,7.95,Log unit,SCC(=O)OCC,,,-
CCOC(=O)CCS,ETHYL3-MERCAPTOPROPANOATE,9.48,Log unit,SCCC(=O)OCC,,,-
CCOC(=O)CC(C)=O,ETHYLACETOACETATE,10.68,Log unit,C(C(=O)C)C(=O)OCC,,,-
OCCO,ethyleneglycol,14.22,Log unit,OCCO,,,-
CCC(C(O)=O)C(O)=O,ETHYLMALONICACID,2.9,Log unit,OC(=O)C(C(=O)O)CC,,,-
CCOC(=O)CN(=O)=O,ETHYLNITROACETATE,5.85,Log unit,C(C(=O)OCC)N(=O)=O,,,-
CCCC(CC)(C(O)=O)C(O)=O,ETHYLPROPYLMALONICACID,3.14,Log unit,OC(=O)C(CC)(CCC)C(=O)O,,,-
CC[C@H](CC(O)=O)C(O)=O,ETHYLSUCCINICACID,4.08,Log unit,OC(=O)C(CC)CC(=O)O,,,-
OC(=O)CF,FLUOROACETICACID,2.59,Log unit,OC(=O)CF,,,-
OC=O,FORMICACID,3.75,Log unit,OC=O,,,-
OC(=O)\C=C\C(O)=O,FUMARICACID,3.1,Log unit,OC(=O)C=CC(=O)O,,,-
OC[C@@H](O)[C@H](O)[C@@H](O)[C@H](O)C(O)=O,GLUCONICACID,3.86,Log unit,OC(=O)C(C(C(C(CO)O)O)O)O,,,-
N[C@@H](CCC(O)=O)C(O)=O,GLUTAMICACID1,2.1,Log unit,OC(=O)C(N)CCC(=O)O,,,-
N[C@@H](CCC(O)=O)C(O)=O,GLUTAMICACID3,4.07,Log unit,OC(=O)CCC(N)C(=O)O,,,-
N[C@@H](CCC(N)=O)C(O)=O,GLUTAMINE1,2.17,Log unit,OC(=O)C(N)CCC(=O)N,,,-
OC(=O)CCCC(O)=O,GLUTARICACID,3.77,Log unit,OC(=O)CCCC(=O)O,,,-
O=C1CCCC(=O)N1,Glutarimide,11.43,Log unit,N1C(=O)CCCC1=O,,,-
OCC(O)CO,glycerol,14.15,Log unit,OC(CO)CO,,,-
NCC(O)=O,GLYCINE1,2.35,Log unit,OC(=O)CN,,,-
OCC(O)=O,GLYCOLICACID,3.83,Log unit,OC(=O)CO,,,-
OC(=O)CCCCCC(O)=O,HEPTANEDIOICACID,4.48,Log unit,OC(=O)CCCCCC(=O)O,,,-
CCCCCCC(O)=O,HEPTANOICACID,4.89,Log unit,OC(=O)CCCCCC,,,-
OC(O)(C(F)(F)F)C(F)(F)F,"Hexafluoro-2,2-propanediol",8.8,Log unit,OC(C(F)(F)F)(C(F)(F)F)O,,,-
OC(C(F)(F)F)C(F)(F)F,Hexafluoro-2-propanol,9.42,Log unit,OC(C(F)(F)F)C(F)(F)F,,,-
N[C@@H](CC1=CN=CN1)C(O)=O,HISTIDINE1,1.8,Log unit,OC(=O)C(N)Cc1[nH]cnc1,,,-
O=C1CNC(=O)N1,hydantoin,9.12,Log unit,N1CC(=O)NC1=O,,,-
OC(=O)NNC(O)=O,"HYDRAZINE-N,N'-DIACETICACID",2.4,Log unit,OC(=O)NNC(=O)O,,,-
OC(=O)CC1=CNC2=CC=CC=C12,INDOLE-3-ACETICACID,4.75,Log unit,OC(=O)Cc1c[nH]c2ccccc12,,,-
OC(=O)CI,IODOACETICACID,3.17,Log unit,OC(=O)CI,,,-
CC[C@H](C)[C@H](N)C(O)=O,ISOLEUCINE1,2.32,Log unit,OC(=O)C(N)C(C)CC,,,-
CC(C)C(C(O)=O)C(O)=O,ISOPROPYLMALONICACID,2.94,Log unit,OC(=O)C(C(=O)O)C(C)C,,,-
OC(=O)CN=C=S,ISOTHIOCYANATOACETICACID,6.62,Log unit,OC(=O)CN=C=S,,,-
CC(C)C[C@H](N)C(O)=O,LEUCINE1,2.33,Log unit,OC(=O)C(N)CC(C)C,,,-
NCCCC[C@H](N)C(O)=O,LYSINE1,2.16,Log unit,OC(=O)C(N)CCCCN,,,-
OC(=O)COC1=CC=CC(=C1)C#N,M-CYANOPHENOXYACETICACID,3.03,Log unit,OC(=O)COc1cccc(c1)C#N,,,-
CC1=CC(S)=CC=C1,m-Thiocresol,6.58,Log unit,Sc1cccc(c1)C,Thiophenol,,-
NC(=O)CC(O)=O,MALONAMICACID,3.64,Log unit,OC(=O)CC(=O)N,,,-
OC(=O)CC(O)=O,MALONICACID,2.83,Log unit,OC(=O)CC(=O)O,,,-
N#CCC#N,MALONONITRILE,2.46,Log unit,C(C#N)C#N,,,-
OC(=O)CS,MERCAPTOACETICACID,3.6,Log unit,OC(=O)CS,,,-
OC(=O)CSCC(O)=O,MERCAPTODIACETICACID,3.32,Log unit,OC(=O)CSCC(=O)O,,,-
OC(=O)C[C@@H](S)C(O)=O,MERCAPTOSUCCINICACID,3.3,Log unit,OC(=O)C(CC(=O)O)S,,,-
CC(=C)C(O)=O,METHACRYLICACID,4.66,Log unit,OC(=O)C(=C)C,,,-
CS,METHANETHIOL,10.7,Log unit,SC,,,-
CSCC[C@H](N)C(O)=O,METHIONINE1,2.13,Log unit,OC(=O)C(N)CCSC,,,-
COCC(O)=O,METHOXYACETICACID,3.57,Log unit,OC(=O)COC,,,-
CC(C(O)=O)C(O)=O,METHYLMALONICACID,3.07,Log unit,OC(=O)C(C(=O)O)C,,,-
C[C@@H](CC(O)=O)C(O)=O,METHYLSUCCINICACID,4.13,Log unit,OC(=O)C(CC(=O)O)C,,,-
CS(=O)(=O)CC(O)=O,METHYLSULFONYLACETICACID,2.36,Log unit,OC(=O)CS(=O)(=O)C,,,-
CSCC(O)=O,METHYLTHIOACETICACID,3.72,Log unit,OC(=O)CSC,,,-
CC(=O)NCCS,N-ACETYL-2-MERCAPTOETHYLAMINE,9.92,Log unit,SCCNC(=O)C,,,-
C[C@H](NC(C)=O)C(O)=O,N-ACETYL-A-ALANINE,3.71,Log unit,OC(=O)C(NC(=O)C)C,,,-
CC(=O)NCCC(O)=O,N-ACETYL-B-ALANINE,4.45,Log unit,OC(=O)CCNC(=O)C,,,-
CC(=O)NCC(O)=O,N-ACETYLGLYCINE,3.67,Log unit,OC(=O)CNC(=O)C,,,-
C[C@H](N)C(=O)NCC(O)=O,N-ALANYLGLYCINE1,3.11,Log unit,OC(=O)CNC(=O)C(N)C,,,-
CCCCNCC(O)=O,N-BUTYLGLYCINE1,2.35,Log unit,OC(=O)CNCCCC,,,-
CCNC(=O)CS,N-ETHYLMERCAPTOACETAMIDE,8.14,Log unit,SCC(=O)NCC,,,-
OC(=O)CNC=O,N-Formylglycine,3.43,Log unit,OC(=O)CNC=O,,,-
C[C@H](N)C(=O)N[C@@H](C)C(O)=O,N-L-ALANYL-D-ALANINE1,3.12,Log unit,OC(=O)C(NC(=O)C(N)C)C,,,-
CN(CC(O)=O)CC(O)=O,N-METHYLIMINODIACETICACID,2.15,Log unit,OC(=O)CN(CC(=O)O)C,,,-
OC(=O)CN(=O)=O,NITROACETICACID,1.68,Log unit,OC(=O)CN(=O)=O,,,-
CCN(=O)=O,Nitroethane,8.57,Log unit,C(C)N(=O)=O,,,-
CN(=O)=O,Nitromethane,9.21,Log unit,CN(=O)=O,,,-
CCCCCCCCC(O)=O,NONANOICACID,4.95,Log unit,OC(=O)CCCCCCCC,,,-
OC(=O)COC1=CC=CC=C1C#N,O-CYANOPHENOXYACETICACID,2.98,Log unit,OC(=O)COc1ccccc1C#N,,,-
OC(=O)C1=C(C=CC=C1)C(O)=O,O-PHTHALICACID,2.95,Log unit,OC(=O)c1ccccc1C(=O)O,,,-
CC1=CC=CC=C1S,o-Thiocresol,6.64,Log unit,Sc1ccccc1C,Thiophenol,,-
CCCCCCCC(O)=O,OCTANOICACID,4.89,Log unit,OC(=O)CCCCCCC,,,-
OC(=O)C(O)=O,OXALICACID,1.27,Log unit,OC(=O)C(=O)O,,,-
OC(=O)C=O,OXOACETICACID,2.46,Log unit,OC(=O)C=O,,,-
OC(=O)COC1=CC=C(C=C1)C#N,P-CYANOPHENOXYACETICACID,2.93,Log unit,OC(=O)COc1ccc(cc1)C#N,,,-
CC1=CC=C(S)C=C1,p-Thiocresol,6.52,Log unit,Sc1ccc(cc1)C,Thiophenol,,-
CC1=CC=C(C=C1)[S@@](O)=O,P-TOLUENESULFINICACID,1.7,Log unit,OS(=O)c1ccc(cc1)C,,,-
OC(=O)CSCCC1=CC=CC=C1,PHENETHYLTHIOACETICACID,3.8,Log unit,OC(=O)CSCCc1ccccc1,,,-
OC1=CC=CC=C1,Phenol,9.99,Log unit,Oc1ccccc1,,,-
OC(=O)COC1=CC=CC=C1,PHENOXYACETICACID,3.17,Log unit,OC(=O)COc1ccccc1,,,-
OC(=O)CC1=CC=CC=C1,PHENYLACETICACID,4.31,Log unit,OC(=O)Cc1ccccc1,,,-
N[C@@H](CC1=CC=CC=C1)C(O)=O,PHENYLALANINE1,2.2,Log unit,OC(=O)C(N)Cc1ccccc1,,,-
OC(=O)C(C(O)=O)C1=CC=CC=C1,PHENYLMALONICACID,2.58,Log unit,OC(=O)C(C(=O)O)c1ccccc1,,,-
SCC1=CC=CC=C1,Phenylmethanethiol,10.7,Log unit,SCc1ccccc1,,,-
OC(=O)CSC1=CC=CC=C1,PHENYLSULFENYLACETICACID,2.66,Log unit,OC(=O)CSc1ccccc1,,,-
OC(=O)CS(=O)(=O)C1=CC=CC=C1,PHENYLSULFONYLACETICACID,2.44,Log unit,OC(=O)CS(=O)(=O)c1ccccc1,,,-
O=C1NC(=O)C2=C1C=CC=C2,phthalimide,9.9,Log unit,N1C(=O)c2ccccc2C1=O,,,-
OC(=O)[C@@H]1CCCN1,PROLINE1,1.95,Log unit,OC(=O)C1CCCN1,,,-
CCC(O)=O,PROPANOICACID,4.87,Log unit,OC(=O)CC,,,-
CCCC(C(O)=O)C(O)=O,PROPYLMALONICACID,2.97,Log unit,OC(=O)C(C(=O)O)CCC,,,-
OC(=O)C#C,PROPYNOICACID,1.89,Log unit,OC(=O)C#C,,,-
OC(=O)N1C=CC=C1,PYRROLE-1-CARBOXYLICACID,4.45,Log unit,OC(=O)n1cccc1,,,-
OC(=O)C1=CC=CN1,PYRROLE-2-CARBOXYLICACID,4.45,Log unit,OC(=O)c1[nH]ccc1,,,-
OC(=O)C1=CNC=C1,PYRROLE-3-CARBOXYLICACID,4.45,Log unit,OC(=O)c1cc[nH]c1,,,-
N[C@@H](CO)C(O)=O,SERINE1,2.19,Log unit,OC(=O)C(N)CO,,,-
OC(=O)CCC(O)=O,SUCCINICACID,4.21,Log unit,OC(=O)CCC(=O)O,,,-
CC(C)(C(O)=O)C(C)(C)C(O)=O,TETRAMETHYLSUCCINICACID,3.5,Log unit,OC(=O)C(C(C(=O)O)(C)C)(C)C,,,-
CC(O)=S,THIOACETICACID,3.33,Log unit,OC(=S)C,,,-
OC(=O)CSC#N,THIOCYANATOACETICACID,2.58,Log unit,OC(=O)CSC#N,,,-
SC1=CC=CC=C1,thiophenol,6.5,Log unit,Sc1ccccc1,Thiophenol,,-
CC(=O)C(C(C)=O)C(C)=O,Triacetylmethane,5.81,Log unit,C(C(=O)C)(C(=O)C)C(=O)C,,,-
C\C(O)=C\CC(O)=O,4-HYDROXY-3-PENTENOICACID,4.3,Log unit,OC(=O)CC=C(C)O,,,-
OC1=CC=C(C=C1)C(F)(F)F,"4-HYDROXY-A,A,A-TRIFLUOROTOLUENE",8.68,Log unit,Oc1ccc(cc1)C(F)(F)F,,,-
OC1=CC=C(C=O)C=C1,4-hydroxybenzaldehyde,7.62,Log unit,Oc1ccc(cc1)C=O,,,-
OC(=O)C1=CC=C(O)C=C1,4-HYDROXYBENZOICACID,4.58,Log unit,OC(=O)c1ccc(cc1)O,,,-
OC1=CC=C(C=C1)C#N,4-hydroxybenzonitrile,7.95,Log unit,Oc1ccc(cc1)C#N,,,-
CC1=CC=C(O)C=C1,4-Hydroxytoluene,10.28,Log unit,Oc1ccc(cc1)C,,,-
OC1=C2CCCC2=CC=C1,4-Indanol,10.32,Log unit,Oc1cccc2c1CCC2,,,-
OC(=O)C1=CC=C(I)C=C1,4-IODOBENZOICACID,4,Log unit,OC(=O)c1ccc(cc1)I,,,-
OC1=CC=C(I)C=C1,4-Iodophenol,9.2,Log unit,Oc1ccc(cc1)I,,,-
OC(=O)COC1=CC=C(I)C=C1,4-IODOPHENOXYACETICACID,3.16,Log unit,OC(=O)COc1ccc(cc1)I,,,-
OC(=O)CC1=CC=C(I)C=C1,4-IODOPHENYLACETICACID,4.18,Log unit,OC(=O)Cc1ccc(cc1)I,,,-
CC(C)C1=CC=C(C=C1)C(O)=O,4-ISOPROPYLBENZOICACID,4.36,Log unit,OC(=O)c1ccc(cc1)C(C)C,,,-
CC(C)C1=CC=C(CC(O)=O)C=C1,4-ISOPROPYLPHENYLACETICACID,4.39,Log unit,OC(=O)Cc1ccc(cc1)C(C)C,,,-
COC1=CC=C(C=C1)C(O)=O,4-METHOXYBENZOICACID,4.49,Log unit,OC(=O)c1ccc(cc1)OC,,,-
COC1=CC=C(O)C=C1,4-Methoxyphenol,10.2,Log unit,Oc1ccc(cc1)OC,,,-
CC(C)\C=C\C(O)=O,4-METHYL-2-PENTENOICACID,4.7,Log unit,OC(=O)C=CC(C)C,,,-
CC(C)=CCC(O)=O,4-METHYL-3-PENTENOICACID,4.6,Log unit,OC(=O)CC=C(C)C,,,-
CC1=CC=C(C=C1)C(O)=O,4-METHYLBENZOICACID,4.36,Log unit,OC(=O)c1ccc(cc1)C,,,-
COC(=O)C1=CC=C(O)C=C1,4-METHYLCARBOXYLPHENOL,8.47,Log unit,Oc1ccc(cc1)C(=O)OC,,,-
CC(C)CCC(O)=O,4-METHYLPENTANOICACID,4.84,Log unit,OC(=O)CCC(C)C,,,-
CC1=CC(O)=CC(C)=C1S(C)(=O)=O,"4-METHYLSULFONYL-3,5-DIMETHYLPHENOL",8.13,Log unit,Oc1cc(c(c(c1)C)S(=O)(=O)C)C,,,-
CS(=O)(=O)C1=CC=C(C=C1)C(O)=O,4-METHYLSULFONYLBENZOICACID,3.64,Log unit,OC(=O)c1ccc(cc1)S(=O)(=O)C,,,-
CS(=O)(=O)C1=CC=C(O)C=C1,4-METHYLSULFONYLPHENOL,7.83,Log unit,Oc1ccc(cc1)S(=O)(=O)C,,,-
OC(=O)C1=CC=C(C=C1)N(=O)=O,4-NITROBENZOICACID,3.44,Log unit,OC(=O)c1ccc(cc1)N(=O)=O,,,-
OC(=O)\C=C\C1=CC=C(C=C1)N(=O)=O,4-NITROCINNAMICACID,4.05,Log unit,OC(=O)C=Cc1ccc(cc1)N(=O)=O,,,-
OC1=CC=C(C=C1)N(=O)=O,4-nitrophenol,7.15,Log unit,Oc1ccc(cc1)N(=O)=O,,,-
OC(=O)CC1=CC=C(C=C1)N(=O)=O,4-NITROPHENYLACETICACID,3.85,Log unit,OC(=O)Cc1ccc(cc1)N(=O)=O,,,-
OC1=CC=C(C=C1)N=O,4-nitrosophenol,6.48,Log unit,Oc1ccc(cc1)N=O,,,-
CC(=O)CCC(O)=O,4-OXOPENTANOICACID,4.59,Log unit,OC(=O)CCC(=O)C,,,-
OC(=O)CCC=C,4-PENTENOICACID,4.68,Log unit,OC(=O)CCC=C,,,-
OC(=O)C1=CC=C(OC2=CC=CC=C2)C=C1,4-PHENOXYBENZOICACID,4.52,Log unit,OC(=O)c1ccc(cc1)Oc1ccccc1,,,-
OC(=O)CCCC1=CC=CC=C1,4-PHENYLBUTANOICACID,4.76,Log unit,OC(=O)CCCc1ccccc1,,,-
OC1=CC=C(C=C1)C1=CC=CC=C1,4-Phenylphenol,9.55,Log unit,Oc1ccc(cc1)c1ccccc1,,,-
NS(=O)(=O)C1=CC=C(C=C1)C(O)=O,4-SULFAMYLBENZOICACID,3.47,Log unit,OC(=O)c1ccc(cc1)S(=O)(=O)N,,,-
OC1=CC=C(C=C1)S(O)(=O)=O,4-SULFOPHENOL2,8.7,Log unit,Oc1ccc(cc1)S(=O)(=O)O,,,-
CC(C)(C)C1=CC=C(C=C1)C(O)=O,4-T-BUTYLBENZOICACID,4.39,Log unit,OC(=O)c1ccc(cc1)C(C)(C)C,,,-
CC(C)(C)C1=CC=C(CC(O)=O)C=C1,4-T-BUTYLPHENYLACETICACID,4.42,Log unit,OC(=O)Cc1ccc(cc1)C(C)(C)C,,,-
OC(=O)CCCC(F)(F)F,"5,5,5-TRIFLUOROPENTANOICACID",4.5,Log unit,OC(=O)CCCC(F)(F)F,,,-
CC1(C)CC(=O)CC(=O)C1,"5,5-DIMETHYL-1,3-CYCLOHEXANEDIONE",5.15,Log unit,C1C(=O)CC(CC1=O)(C)C,,,-
CC(=O)CC(=O)C(C)(C)C,"5,5-DIMETHYL-2,4-HEXANEDIONE",10.01,Log unit,C(C(=O)C)C(=O)C(C)(C)C,,,-
CC1(C)NC(=O)NC1=O,"5,5-DIMETHYLHYDANTOIN",9.19,Log unit,N1C(C(=O)NC1=O)(C)C,,,-
OC1=CC=CC2=C1CCCC2,"5,6,7,8-Tetrahydro-1-naphthol",10.28,Log unit,Oc1cccc2CCCCc12,,,-
OC1=CC2=C(CCCC2)C=C1,"5,6,7,8-tetrahydro-2-naphthol",10.48,Log unit,Oc1ccc2CCCCc2c1,,,-
NCCCCC(O)=O,5-AMINOPENTANOICACID1,4.2,Log unit,OC(=O)CCCCN,,,-
NC1=CC=C(O)C(=C1)C(O)=O,5-AMINOSALICYLICACID1,2.74,Log unit,OC(=O)c1c(ccc(c1)N)O,,,-
CCCCCC1(CC)C(=O)NC(=O)NC1=O,5-ETHYL-5-PENTYLBARBITURICACID,7.96,Log unit,N1C(=O)NC(=O)C(C1=O)(CC)CCCCC,,,-
CCC1(C(=O)NC(=O)NC1=O)C1=CC=CC=C1,5-ETHYL-5-PHENYLBARBITURICACID,7.45,Log unit,N1C(=O)NC(=O)C(C1=O)(CC)c1ccccc1,,,-
FC1=CNC(=O)NC1=O,5-fluorouracil,8,Log unit,[nH]1c(=O)[nH]cc(c1=O)F,,,-
CC1=C(N=NN1C1=CC=CC=C1)C(O)=O,"5-METHYL-1-PHENYL-1,2,3-TRIAZOLE-4-CARBOXYLICACID",3.73,Log unit,OC(=O)c1c(n(c2ccccc2)nn1)C,,,-
CC(C)=CCCC(O)=O,5-METHYL-4-HEXENOICACID,4.8,Log unit,OC(=O)CCC=C(C)C,,,-
C[C@]1(CNC(=O)NC1=O)C1=CC=CC=C1,5-METHYL-5-PHENYLBARBITURICACID,8.01,Log unit,N1CC(c2ccccc2)(C(=O)NC1=O)C,,,-
NCCCCCC(O)=O,6-AMINOHEXANOICACID1,4.37,Log unit,OC(=O)CCCCCN,,,-
CC1=NC(=CC=C1)C(O)=O,6-METHYLPYRIDINE-2-CARBOXYLICACID,5.83,Log unit,n1c(cccc1C(=O)O)C,,,-
OC1=C(C=C(C2=C1N=CC=C2)S(O)(=O)=O)\N=N\C1=CC=C(C=C1)N(=O)=O,7-(4-NITROPHENYLAZO)-8-HYDROXY-5-QUINOLINESUFONICACID,3.14,Log unit,n1cccc2c(cc(c(c12)O)N=Nc1ccc(cc1)N(=O)=O)S(=O)(=O)O,,,-
OC1=C(Br)C=C(C2=C1N=CC=C2)S(O)(=O)=O,7-BROMO-8-HYDROXYQUINOLINE-5-SULFONICACID,2.51,Log unit,n1cccc2c(cc(c(c12)O)Br)S(=O)(=O)O,,,-
OC1=C(Cl)C=C(C2=C1N=CC=C2)S(O)(=O)=O,7-CHLORO-8-HYDROXYQUINOLINE-5-SULFONICACID,2.92,Log unit,n1cccc2c(cc(c(c12)O)Cl)S(=O)(=O)O,,,-
OC1=C(I)C=C(C2=C1N=CC=C2)S(O)(=O)=O,7-IODO-8-HYDROXYQUINOLINE-5-SULFONICACID,2.51,Log unit,n1cccc2c(cc(c(c12)O)I)S(=O)(=O)O,,,-
OC1=C(C=C(C2=C1N=CC=C2)S(O)(=O)=O)\N=N\C1=CC=CC=C1,7-PHENYLAZO-8-HYDROXY-5-QUINOLINESULFONICACID,3.41,Log unit,n1cccc2c(cc(c(c12)O)N=Nc1ccccc1)S(=O)(=O)O,,,-
CC1=NC2=C(C=C1)C(=CC=C2O)S(O)(=O)=O,8-HYDROXY-2-METHYLQUINOLINE-5-SULFONICACID,4.8,Log unit,n1c(ccc2c(ccc(c12)O)S(=O)(=O)O)C,,,-
CC(O)=O,ACETICACID,4.76,Log unit,OC(=O)C,,,-
OC(=O)C=C,ACRYLICACID,4.26,Log unit,OC(=O)C=C,,,-
C[C@H](N)C(O)=O,ALANINE1,2.35,Log unit,OC(=O)C(N)C,,,-
C[C@H](N)C(=O)NCC(=O)NCC(O)=O,ALANYLGLYCYLGLYCINE1,3.19,Log unit,OC(=O)CNC(=O)CNC(=O)C(N)C,,,-
[H]N=C(N)NCCC[C@H](N)C(O)=O,ARGININE1,1.82,Log unit,OC(=O)C(N)CCCNC(=N)N,,,-
N[C@@H](CC(N)=O)C(O)=O,ASPARAGINE1,2.14,Log unit,OC(=O)C(N)CC(=O)N,,,-
N[C@@H](CC(O)=O)C(O)=O,ASPARTICACID1,1.99,Log unit,OC(=O)C(N)CC(=O)O,,,-
N[C@@H](CC(O)=O)C(O)=O,ASPARTICACID3,3.9,Log unit,OC(=O)CC(N)C(=O)O,,,-
C[C@H](N)C(=O)N[C@@H](CC1=CN=CN1)C(O)=O,B-ALANYLHISTIDINE1,2.64,Log unit,OC(=O)C(NC(=O)C(N)C)Cc1[nH]cnc1,,,-
OC(=O)C1=C(C(O)=O)C(C(O)=O)=C(C(O)=O)C(C(O)=O)=C1C(O)=O,BENZENEHEXACARBOXYLICACID,0.68,Log unit,OC(=O)c1c(c(c(c(c1C(=O)O)C(=O)O)C(=O)O)C(=O)O)C(=O)O,,,-
OC(=O)C1=CC(C(O)=O)=C(C(O)=O)C(C(O)=O)=C1C(O)=O,BENZENEPENTACARBOXYLICACID,1.8,Log unit,OC(=O)c1c(c(c(cc1C(=O)O)C(=O)O)C(=O)O)C(=O)O,,,-
O[S@@](=O)C1=CC=CC=C1,BENZENESULFINICACID,1.5,Log unit,OS(=O)c1ccccc1,,,-
OS(=O)(=O)C1=CC=CC=C1,BENZENESULFONICACID,2.55,Log unit,OS(=O)(=O)c1ccccc1,,,-
OC(=O)C(O)(C1=CC=CC=C1)C1=CC=CC=C1,BENZILICACID,3.09,Log unit,OC(=O)C(c1ccccc1)(c1ccccc1)O,,,-
OC(=O)C1=CC=CC=C1,BENZOICACID,4.2,Log unit,OC(=O)c1ccccc1,,,-
CC(=O)CC(=O)C1=CC=CC=C1,Benzoylacetone,8.23,Log unit,C(C(=O)c1ccccc1)C(=O)C,,,-
OC(=O)CBr,BROMOACETICACID,2.9,Log unit,OC(=O)CBr,,,-
OC(=O)C#CBr,BROMOPROPYNOICACID,1.86,Log unit,OC(=O)C#CBr,,,-
OC(=O)C[C@@H](Br)C(O)=O,BROMOSUCCINICACID,2.55,Log unit,OC(=O)C(CC(=O)O)Br,,,-
CCCC(O)=O,BUTYRICACID,4.82,Log unit,OC(=O)CCC,,,-
OC(=O)CCl,CHLOROACETICACID,2.87,Log unit,OC(=O)CCl,,,-
OC(=O)C(F)(F)Cl,CHLORODIFLUOROACETICACID,0.46,Log unit,OC(=O)C(Cl)(F)F,,,-
OC(=O)C#CCl,CHLOROPROPYNOICACID,1.85,Log unit,OC(=O)C#CCl,,,-
NC#N,CYANAMIDE,10.27,Log unit,NC#N,,,-
OC(=O)CC#N,CYANOACETICACID,2.46,Log unit,OC(=O)CC#N,,,-
O=C1NC(=O)NC(=O)N1,CYANURICACID,6.78,Log unit,[nH]1c(=O)[nH]c(=O)[nH]c1=O,,,-
OC(=O)C1CCC1,CYCLOBUTANECARBOXYLICACID,4.78,Log unit,OC(=O)C1CCC1,,,-
OC(=O)C1CCCCC1,CYCLOHEXANECARBOXYLICACID,4.9,Log unit,OC(=O)C1CCCCC1,,,-
OC(=O)CC1CCCCC1,CYCLOHEXYLACETICACID,4.51,Log unit,OC(=O)CC1CCCCC1,,,-
OC(=O)[C@@H](C#N)C1CCCCC1,CYCLOHEXYLCYANOACETICACID,2.37,Log unit,OC(=O)C(C1CCCCC1)C#N,,,-
OC(=O)CSC1CCCCC1,CYCLOHEXYLTHIOACETICACID,3.49,Log unit,OC(=O)CSC1CCCCC1,,,-
OC(=O)C1(CCCC1)C(O)=O,"CYCLOPENTANE-1,1-DICARBOXYLICACID",3.23,Log unit,OC(=O)C1(CCCC1)C(=O)O,,,-
OC(=O)C1CCCC1,CYCLOPENTANECARBOXYLICACID,4.91,Log unit,OC(=O)C1CCCC1,,,-
OC(=O)C1(CC1)C(O)=O,"CYCLOPROPANE-1,1-DICARBOXYLICACID",1.82,Log unit,OC(=O)C1(CC1)C(=O)O,,,-
OC(=O)C1CC1,CYCLOPROPANECARBOXYLICACID,4.83,Log unit,OC(=O)C1CC1,,,-
N[C@@H](CS)C(O)=O,CYSTEINE1,1.92,Log unit,OC(=O)C(N)CS,,,-
N[C@@H](CS)C(O)=O,CYSTEINE3,8.37,Log unit,NC(CS)C(=O)O,,,-
OC(=O)C(Br)Br,DIBROMOACETICACID,1.39,Log unit,OC(=O)C(Br)Br,,,-
OC(=O)C(Cl)Cl,DICHLOROACETICACID,1.26,Log unit,OC(=O)C(Cl)Cl,,,-
OC(=O)C(F)F,DIFLUOROACETICACID,1.33,Log unit,OC(=O)C(F)F,,,-
OC(C(O)=O)C(=O)C(O)=O,DIHYDROXYMALEICACID,1.1,Log unit,OC(=O)C(=O)C(C(=O)O)O,,,-
O[C@@H](C(O)=O)C1=CC(Cl)=CC=C1,3-CHLOROMANDELICACID,3.24,Log unit,OC(=O)C(O)c1cc(ccc1)Cl,,,-
OC1=CC=CC(Cl)=C1,3-Chlorophenol,9.1,Log unit,Oc1cc(ccc1)Cl,,,-
OC(=O)COC1=CC(Cl)=CC=C1,3-CHLOROPHENOXYACETICACID,3.07,Log unit,OC(=O)COc1cc(ccc1)Cl,,,-
OC(=O)CC1=CC=CC(Cl)=C1,3-CHLOROPHENYLACETICACID,4.14,Log unit,OC(=O)Cc1cccc(c1)Cl,,,-
OC(=O)CCCl,3-CHLOROPROPANOICACID,3.99,Log unit,OC(=O)CCCl,,,-
OC(=O)C1=CC(=CC=C1)C#N,3-CYANOBENZOICACID,3.6,Log unit,OC(=O)c1cc(C#N)ccc1,,,-
OC1=CC=CC(=C1)C#N,3-Cyanophenol,8.61,Log unit,Oc1cccc(c1)C#N,,,-
OC(=O)CCC#N,3-CYANOPROPANOICACID,3.99,Log unit,OC(=O)CCC#N,,,-