Smiles,Name,pKa,pKa Unit,Ionizable center smiles,IC group,Temperature,Temperature Unit
CC1=C(C)C(=CC=C1)C(O)=O,"2,3-dimethyl-benzoic acid",3.758,Log unit,OC(=O)c1cccc(c1C)C,,25,?C
CC1=CC(C)=C(C=C1)C(O)=O,"2,4-dimethyl-benzoic acid",4.2595,Log unit,OC(=O)c1ccc(cc1C)C,,25,?C
CC1=CC(C(O)=O)=C(C)C=C1,"2,5-dimethyl-benzoic acid",4.0205,Log unit,OC(=O)c1c(ccc(c1)C)C,,25,?C
CC1=CC=CC(C)=C1C(O)=O,"2,6-dimethyl-benzoic acid",3.35,Log unit,OC(=O)c1c(cccc1C)C,,25,?C
CC1=C(C)C=C(C=C1)C(O)=O,"3,4-dimethyl-benzoic acid",4.455,Log unit,OC(=O)c1ccc(c(c1)C)C,,25,?C
CC1=CC(=CC(C)=C1)C(O)=O,"3,5-dimethyl-benzoic acid",4.345,Log unit,OC(=O)c1cc(cc(c1)C)C,,25,?C
CC1=CC(C)=C(C(O)=O)C(C)=C1,"2,4,6-trimethyl-benzoic acid",3.498,Log unit,OC(=O)c1c(cc(cc1C)C)C,,25,?C
CCC1=CC=CC=C1C(O)=O,2-ethyl-benzoic acid,3.79,Log unit,OC(=O)c1ccccc1CC,,25,?C
CCC1=CC=C(C=C1)C(O)=O,p-ethyl-benzoic acid,4.35,Log unit,OC(=O)c1ccc(cc1)CC,,25,?C
CC(C)C1=CC=CC=C1C(O)=O,2-iso-propyl-benzoic acid,3.63,Log unit,OC(=O)c1ccccc1C(C)C,,25,?C
CC(C)C1=CC=C(C=C1)C(O)=O,p-iso-propy-benzoic acid,4.355,Log unit,OC(=O)c1ccc(cc1)C(C)C,,25,?C
CC(C)(C)C1=CC=CC=C1C(O)=O,2-tert.-butyl-benzoic acid,3.54,Log unit,OC(=O)c1ccccc1C(C)(C)C,,25,?C
CC(C)(C)C1=CC=CC(=C1)C(O)=O,m-tert.-butyl-benzoic acid,4.24,Log unit,OC(=O)c1cccc(c1)C(C)(C)C,,25,?C
CC(C)(C)C1=CC=C(C=C1)C(O)=O,p-tert.-butyl-benzoic acid,4.39,Log unit,OC(=O)c1ccc(cc1)C(C)(C)C,,25,?C
OC(=O)C1=CC=CC=C1C1=CC=CC=C1,2-phenyl-benzoic acid,3.46,Log unit,OC(=O)c1c(c2ccccc2)cccc1,,25,?C
OC(=O)C1=CC=CC2=CC=CC=C12,1-Naphthoic Acid,3.6185,Log unit,OC(=O)c1c2ccccc2ccc1,,25,?C
OC(=O)C1=CC2=CC=CC=C2C=C1,2-NAPHTHOIC ACID,4.165,Log unit,OC(=O)c1cc2ccccc2cc1,,25,?C
CC1=C(C(O)=O)C2=CC=CC=C2C=C1,2-Methyl-1-naphthoic acid,3.1,Log unit,OC(=O)c1c2ccccc2ccc1C,,25,?C
CC1=CC2=CC=CC=C2C(C(O)=O)=C1C,"2,3-dimethyl-1-naphthoic acid",3.3,Log unit,OC(=O)c1c2ccccc2cc(c1C)C,,25,?C
OC(=O)C1=CC=CC2=CC3=CC=CC=C3C=C12,anthracene-1-carboxylic acid,3.68,Log unit,OC(=O)c1c2cc3ccccc3cc2ccc1,,25,?C
OC(=O)C1=CC2=CC3=CC=CC=C3C=C2C=C1,Anthracene-2-carboxylic acid,4.18,Log unit,OC(=O)c1cc2cc3ccccc3cc2cc1,,25,?C
OC(=O)C1=C2C=CC=CC2=CC2=CC=CC=C12,ANTHRACENE-9-CARBOXYLIC ACID,3.65,Log unit,OC(=O)c1c2ccccc2cc2c1cccc2,,25,?C
OC(=O)C1=CC=CC=C1C(O)=O,phthalic acid,3.3,Log unit,OC(=O)c1ccccc1C(=O)O,,25,?C
OC(=O)C1=CC(=CC=C1)C(O)=O,"1,3-Benzenedicarboxylic acid",4,Log unit,OC(=O)c1cccc(c1)C(=O)O,,25,?C
OC(=O)C1=CC=CC(=C1)C([O-])=O,"1,3-Benzenedicarboxylic acid",4.3,Log unit,OC(=O)c1cccc(c1)C(=O)[O-],,25,?C
OC(=O)C1=CC=C(C=C1)C(O)=O,TEREPHTHALIC ACID,3.5,Log unit,OC(=O)c1ccc(cc1)C(=O)O,,25,?C
OC(=O)C1=CC=C(C=C1)C([O-])=O,TEREPHTHALIC ACID,4.3,Log unit,OC(=O)c1ccc(cc1)C(=O)[O-],,25,?C
OC(=O)C1=CC(=CC(=C1)C(O)=O)C(O)=O,"benzene-1,3,5-tricarboxylic acid",3.6,Log unit,OC(=O)c1cc(cc(c1)C(=O)O)C(=O)O,,25,?C
OC(=O)C1=CC(=CC(=C1)C(O)=O)C([O-])=O,"benzene-1,3,5-tricarboxylic acid",3.9,Log unit,OC(=O)c1cc(cc(c1)C(=O)[O-])C(=O)O,,25,?C
OC(=O)C1=CC(=CC(=C1)C([O-])=O)C([O-])=O,"benzene-1,3,5-tricarboxylic acid",4.4,Log unit,OC(=O)c1cc(cc(C(=O)[O-])c1)C(=O)[O-],,25,?C
OC(=O)C1=CC(C(O)=O)=C(C=C1)C(O)=O,"Benzene-1,2,4-tricarboxylic acid",2.82,Log unit,OC(=O)c1c(ccc(c1)C(=O)O)C(=O)O,,25,?C
OC(=O)C1=CC(C([O-])=O)=C(C=C1)C(O)=O,"Benzene-1,2,4-tricarboxylic acid",3.84,Log unit,OC(=O)c1ccc(cc1C(=O)[O-])C(=O)O,,25,?C
OC(=O)C1=C(C=C(C=C1)C([O-])=O)C([O-])=O,"Benzene-1,2,4-tricarboxylic acid",4.9,Log unit,OC(=O)c1ccc(cc1C(=O)[O-])C(=O)[O-],,25,?C
OC(=O)C1=CC=CC(C(O)=O)=C1C(O)=O,"1,2,3-Benzenetricarboxylic acid",2.8,Log unit,OC(=O)c1c(cccc1C(=O)O)C(=O)O,,25,?C
OC(=O)C1=CC=CC(C(O)=O)=C1C([O-])=O,"1,2,3-Benzenetricarboxylic acid",4.5,Log unit,OC(=O)c1cccc(c1C(=O)[O-])C(=O)O,,25,?C
OC(=O)C1=CC=CC(C([O-])=O)=C1C([O-])=O,"1,2,3-Benzenetricarboxylic acid",4.85,Log unit,OC(=O)c1cccc(c1C(=O)[O-])C(=O)[O-],,25,?C
OC(=O)C1=C(C(O)=O)C(C(O)=O)=C(C=C1)C(O)=O,"Benzene-1,2,3,4-tetracarboxylic acid",2.35,Log unit,OC(=O)c1c(ccc(c1C(=O)O)C(=O)O)C(=O)O,,25,?C
OC(=O)C1=C(C(O)=O)C(C([O-])=O)=C(C=C1)C(O)=O,"Benzene-1,2,3,4-tetracarboxylic acid",2.9,Log unit,OC(=O)c1ccc(c(c1C(=O)[O-])C(=O)O)C(=O)O,,25,?C
OC(=O)C1=C(C([O-])=O)C(C(O)=O)=C(C=C1)C([O-])=O,"Benzene-1,2,3,4-tetracarboxylic acid",4.43,Log unit,OC(=O)c1ccc(c(c1C(=O)[O-])C(=O)O)C(=O)[O-],,25,?C
OC(=O)C1=C(C=CC(C([O-])=O)=C1C([O-])=O)C([O-])=O,"Benzene-1,2,3,4-tetracarboxylic acid",5.8,Log unit,OC(=O)c1c(ccc(c1C(=O)[O-])C(=O)[O-])C(=O)[O-],,25,?C
OC(=O)C1=CC(C(O)=O)=C(C=C1C(O)=O)C(O)=O,"1,2,4,5-Benzenetetracarboxylic acid",2.22,Log unit,OC(=O)c1c(cc(c(c1)C(=O)O)C(=O)O)C(=O)O,,25,?C
OC(=O)C1=CC(C(O)=O)=C(C=C1C([O-])=O)C(O)=O,"1,2,4,5-Benzenetetracarboxylic acid",3,Log unit,OC(=O)c1cc(c(cc1C(=O)[O-])C(=O)O)C(=O)O,,25,?C
OC(=O)C1=CC(C([O-])=O)=C(C=C1C([O-])=O)C(O)=O,"1,2,4,5-Benzenetetracarboxylic acid",4.6,Log unit,OC(=O)c1cc(c(cc1C(=O)[O-])C(=O)O)C(=O)[O-],,25,?C
OC(=O)C1=C(C=C(C([O-])=O)C(=C1)C([O-])=O)C([O-])=O,"1,2,4,5-Benzenetetracarboxylic acid",5.3,Log unit,OC(=O)c1c(cc(c(c1)C(=O)[O-])C(=O)[O-])C(=O)[O-],,25,?C
OC(=O)C1=CC(C(O)=O)=C(C(O)=O)C(C(O)=O)=C1C(O)=O,benzene-pentacarboxylic acid,2.3,Log unit,OC(=O)c1c(c(cc(c1C(=O)O)C(=O)O)C(=O)O)C(=O)O,,25,?C
OC(=O)C1=CC(C(O)=O)=C(C(O)=O)C(C([O-])=O)=C1C(O)=O,benzene-pentacarboxylic acid,2.7,Log unit,OC(=O)c1c(cc(c(c1C(=O)[O-])C(=O)O)C(=O)O)C(=O)O,,25,?C
OC(=O)C1=C(C(O)=O)C(C([O-])=O)=C(C(O)=O)C(=C1)C([O-])=O,benzene-pentacarboxylic acid,3.5,Log unit,OC(=O)c1c(cc(c(c1C(=O)[O-])C(=O)O)C(=O)O)C(=O)[O-],,25,?C
OC(=O)C1=C(C([O-])=O)C(C(O)=O)=C(C=C1C([O-])=O)C([O-])=O,benzene-pentacarboxylic acid,5.5,Log unit,OC(=O)c1c(cc(c(c1C(=O)[O-])C(=O)O)C(=O)[O-])C(=O)[O-],,25,?C
OC(=O)C1=C(C=C(C([O-])=O)C(C([O-])=O)=C1C([O-])=O)C([O-])=O,benzene-pentacarboxylic acid,6,Log unit,OC(=O)c1c(cc(c(c1C(=O)[O-])C(=O)[O-])C(=O)[O-])C(=O)[O-],,25,?C
OC(=O)C1=C(C([O-])=O)C(C([O-])=O)=C(C([O-])=O)C(C([O-])=O)=C1C([O-])=O,373 440 benzenehexacarboxylic acid,6.17,Log unit,OC(=O)c1c(c(c(c(c1C(=O)[O-])C(=O)[O-])C(=O)[O-])C(=O)[O-])C(=O)[O-],,25,?C
OC(=O)C1=C(C(O)=O)C(C(O)=O)=C(C(O)=O)C(C(O)=O)=C1C(O)=O,371 440 benzenehexacarboxylic acid,2.18,Log unit,OC(=O)c1c(C(=O)O)c(C(=O)O)c(C(=O)O)c(C(=O)O)c1C(=O)O,,25,?C
OC(=O)C1=C(C(O)=O)C(C(O)=O)=C(C([O-])=O)C(C(O)=O)=C1C(O)=O,371 440 benzenehexacarboxylic acid,2.6,Log unit,OC(=O)c1c(C(=O)[O-])c(c(c(c1C(=O)O)C(=O)O)C(=O)O)C(=O)O,,25,?C
OC(=O)C1=C(C(O)=O)C(C([O-])=O)=C(C(O)=O)C(C([O-])=O)=C1C(O)=O,371 440 benzenehexacarboxylic acid,3.2,Log unit,OC(=O)c1c(C(=O)[O-])c(c(c(c1C(=O)[O-])C(=O)O)C(=O)O)C(=O)O,,25,?C
OC(=O)C1=C(C([O-])=O)C(C(O)=O)=C(C([O-])=O)C(C(O)=O)=C1C([O-])=O,372 440 benzenehexacarboxylic acid,4.66,Log unit,OC(=O)c1c(C(=O)[O-])c(c(c(c1C(=O)[O-])C(=O)O)C(=O)[O-])C(=O)O,,25,?C
OC(=O)C1=C(C([O-])=O)C(C([O-])=O)=C(C([O-])=O)C(C(O)=O)=C1C([O-])=O,372 440 benzenehexacarboxylic acid,5.4,Log unit,OC(=O)c1c(C(=O)[O-])c(c(c(c1C(=O)[O-])C(=O)O)C(=O)[O-])C(=O)[O-],,25,?C
OC(=O)C1=CC=CC=C1F,2-fluoro-benzoic acid,3.085,Log unit,OC(=O)c1c(F)cccc1,,25,?C
OC(=O)C1=CC(F)=CC=C1,m-fluoro-benzoic acid,3.855,Log unit,OC(=O)c1cc(F)ccc1,,25,?C
OC(=O)C1=CC=C(F)C=C1,p-fluoro-benzoic acid,4.145,Log unit,OC(=O)c1ccc(F)cc1,,25,?C
OC(=O)C1=CC=CC=C1Cl,2-chloro-benzoic acid,2.965,Log unit,OC(=O)c1c(Cl)cccc1,,25,?C
OC(=O)C1=CC(Cl)=CC=C1,m-chloro-benzoic acid,3.83,Log unit,OC(=O)c1cc(Cl)ccc1,,25,?C
OC(=O)C1=CC=C(Cl)C=C1,p-chloro-benzoic acid,3.99,Log unit,OC(=O)c1ccc(Cl)cc1,,25,?C
OC(=O)C1=CC=CC=C1Br,2-bromo-benzoic acid,2.88,Log unit,OC(=O)c1c(Br)cccc1,,25,?C
OC(=O)C1=CC(Br)=CC=C1,m-bromo-benzoic acid,3.81,Log unit,OC(=O)c1cc(Br)ccc1,,25,?C
OC(=O)C1=CC=C(Br)C=C1,p-bromo-benzoic acid,4,Log unit,OC(=O)c1ccc(Br)cc1,,25,?C
OC(=O)C1=CC=CC=C1I,2-Iodo-benzoic acid,2.93,Log unit,OC(=O)c1c(I)cccc1,,25,?C
OC(=O)C1=CC(I)=CC=C1,m-iodine-benzoic acid,3.855,Log unit,OC(=O)c1cc(I)ccc1,,25,?C
OC(=O)C1=CC=CC=C1C#N,2-cyano-benzoic acid,3.14,Log unit,OC(=O)c1ccccc1C#N,,25,?C
OC(=O)C1=CC=CC(=C1)C#N,m-cyano-benzoic acid,3.6,Log unit,OC(=O)c1cccc(c1)C#N,,25,?C
OC(=O)C1=CC=C(C=C1)C#N,p-cyano-benzoic acid,3.55,Log unit,OC(=O)c1ccc(cc1)C#N,,25,?C
OC(=O)C1=CC=CC=C1O,2-hydroxy-benzoic acid,3.0075,Log unit,OC(=O)c1ccccc1O,,25,?C
OC1=CC=CC=C1C([O-])=O,2-hydroxy-benzoic acid,13.5,Log unit,Oc1ccccc1C(=O)[O-],,25,?C
OC(=O)C1=CC=CC(O)=C1,m-hydroxy-benzoic acid,4.02,Log unit,OC(=O)c1cccc(O)c1,,25,?C
OC1=CC(=CC=C1)C([O-])=O,m-hydroxy-benzoic acid,9.9,Log unit,Oc1cccc(c1)C(=O)[O-],,25,?C
OC(=O)C1=CC=C(O)C=C1,p-hydroxy-benzoic acid,4.5,Log unit,OC(=O)c1ccc(O)cc1,,25,?C
OC1=CC=C(C=C1)C([O-])=O,p-hydroxy-benzoic acid,9.4,Log unit,Oc1ccc(C(=O)[O-])cc1,,25,?C
OC(=O)C1=CC=C(O)C=C1O,"2,4-dihydroxy-benzoic acid",3.3125,Log unit,OC(=O)c1ccc(O)cc1O,,25,?C
OC1=CC([O-])=CC=C1C([O-])=O,"2,4-dihydroxy-benzoic acid",14,Log unit,Oc1cc([O-])ccc1C(=O)[O-],,25,?C
OC(=O)C1=CC=C(O)C(O)=C1,"3,4-dihydroxy-benzoic acid",4.375,Log unit,OC(=O)c1ccc(O)c(O)c1,,25,?C
OC1=CC(=CC=C1[O-])C([O-])=O,"3,4-dihydroxy-benzoic acid",12.6,Log unit,Oc1c([O-])ccc(C(=O)[O-])c1,,25,?C
OC(=O)C1=CC(O)=CC(O)=C1,"3,5-dihydroxy-benzoic acid",4.04,Log unit,OC(=O)c1cc(O)cc(O)c1,,25,?C
OC(=O)C1=C(O)C=CC=C1O,"2,6-dihydroxy-benzoic acid",1.0605,Log unit,OC(=O)c1c(cccc1O)O,,25,?C
OC(=O)C1=CC(O)=C(O)C(O)=C1,gallic acid,4.27,Log unit,OC(=O)c1cc(O)c(O)c(c1)O,,25,?C
OC(=O)C1=CC(=CC(=C1O)N(=O)=O)N(=O)=O,"2-HYDROXY-3,5-DINITRO-BENZOIC ACID",0.7,Log unit,OC(=O)c1c(O)c(cc(N(=O)=O)c1)N(=O)=O,,25,?C
OC1=C(C=C(C=C1C([O-])=O)N(=O)=O)N(=O)=O,"2-HYDROXY-3,5-DINITRO-BENZOIC ACID",7.34,Log unit,Oc1c(cc(N(=O)=O)cc1C(=O)[O-])N(=O)=O,,25,?C
OC(=O)C1=CC=CC=C1N(=O)=O,2-nitro-benzoic acid,2.34,Log unit,OC(=O)c1ccccc1N(=O)=O,,25,?C
OC(=O)C1=CC=CC(=C1)N(=O)=O,m-nitro-benzoic acid,3.465,Log unit,OC(=O)c1cccc(c1)N(=O)=O,,25,?C
OC(=O)C1=CC=C(C=C1)N(=O)=O,p-nitro-benzoic acid,3.435,Log unit,OC(=O)c1ccc(cc1)N(=O)=O,,25,?C
OC(=O)COC1=CC=C(C=C1)N(=O)=O,p-nitrophenoxy-acetic acid,2.85,Log unit,OC(=O)COc1ccc(cc1)N(=O)=O,,25,?C
OC(=O)COC1=CC=C(Cl)C(=C1)N(=O)=O,3-nitro-4-chloro-phenoxy-acetic acid,2.96,Log unit,OC(=O)COc1ccc(Cl)c(c1)N(=O)=O,,25,?C
CC(O)C(=O)OC(C)C(O)=O,dilactic acid,2.95,Log unit,OC(=O)C(OC(=O)C(O)C)C,,25,?C
OC(CCl)C(O)=O,beta-chloro-lactic acid,3.12,Log unit,OC(=O)C(CCl)O,,25,?C
CC(O)C(Cl)C(O)=O,"alpha,chloro-beta-hydroxy-n-butyric acid",2.58,Log unit,OC(=O)C(Cl)C(O)C,,25,?C
CC(Cl)C(O)C(O)=O,alpha-hydroxy-beta-chloro-n-butyric acid,3.08,Log unit,OC(=O)C(C(Cl)C)O,,25,?C
CC(O)(CCl)C(O)=O,alpha-hydroxy-beta-chloro-iso-butyric acid,3.2,Log unit,OC(=O)C(CCl)(O)C,,25,?C
OC(C(Cl)C(O)=O)C(O)=O,alpha-hydroxy-alpha'-chlorobutyric acid,2.32,Log unit,OC(=O)C(Cl)C(O)C(=O)O,,25,?C
CC(=O)OC(CC(O)=O)(CC(O)=O)C(O)=O,acetylcitric acid,2.49,Log unit,OC(=O)C(OC(=O)C)(CC(=O)O)CC(=O)O,,25,?C
OC(C(Cl)C(O)=O)C1=CC=CC=C1,alpha-chloro-beta-hydroxy-beta-phenyl-propionic acid,2.6,Log unit,OC(=O)C(Cl)C(O)c1ccccc1,,25,?C
OC(=O)C1OC1C([O-])=O,trans-ethyleneoxidedicarboxylic acid,4.3,Log unit,OC(=O)C1OC1C(=O)[O-],,25,?C
NC(=O)CC(O)=O,malonic acid monoamide,3.64,Log unit,OC(=O)CC(=O)N,,25,?C
NC(=O)CCC(O)=O,succinic acid monoamide,4.54,Log unit,OC(=O)CCC(=O)N,,25,?C
NC(=O)CCCC(O)=O,glutaric acid monoamide,4.6,Log unit,OC(=O)CCCC(=O)N,,25,?C
NC(=O)CCCCC(O)=O,adipic acid monoamide,4.63,Log unit,OC(=O)CCCCC(=O)N,,25,?C
OC(=O)CSSCC(O)=O,Dithiodiacetic acid,3.115,Log unit,OC(=O)CSSCC(=O)O,,25,?C
OC(=O)CSCSCC(O)=O,methylene-bis-thioacetic acid,3.305,Log unit,OC(=O)CSCSCC(=O)O,,25,?C
CC(SCC(O)=O)C(O)=O,alpha-thiopropionic acid-acetic acid,3.38,Log unit,OC(=O)CSC(C(=O)O)C,,25,?C
CC(SSC(C)C(O)=O)C(O)=O,rac-alpha-dithiodipropionic acid,3.45,Log unit,OC(=O)C(SSC(C(=O)O)C)C,,25,?C
CC(SSC(C)C(O)=O)C(O)=O,rac-alpha-dithiodipropionic acid,3.15,Log unit,OC(=O)C(SSC(C(=O)O)C)C,,25,?C
[NH3+]CCSCCCCCCCCCC(O)=O,10-(aminoethylthio)-n-decanoic acid,4,Log unit,OC(=O)CCCCCCCCCSCC[NH3+],,25,?C
NCCSCCCCCCCCCCC([O-])=O,11-(aminoethylthio)-n-undecanoic acid,9.6,Log unit,NCCSCCCCCCCCCCC(=O)[O-],,25,?C
OC(=O)CCCCCCCCCC[NH2+]CCSSCC[NH2+]CCCCCCCCCCC(O)=O,"11,11'-(dithio-bis-ethylamine)-di-n-undecanoic acid",3.5,Log unit,OC(=O)CCCCCCCCCC[NH2+]CCSSCC[NH2+]CCCCCCCCCCC(=O)O,,25,?C
[O-]C(=O)CCCCCCCCCCNCCSSCC[NH2+]CCCCCCCCCCC([O-])=O,"11,11'-(dithio-bis-ethylamine)-di-n-undecanoic acid",10.2,Log unit,N(CCSSCC[NH2+]CCCCCCCCCCC(=O)[O-])CCCCCCCCCCC(=O)[O-],,25,?C
CCS(=O)(=O)C(C)C(O)=O,alpha-ethylsulfonyl-propionic acid,2.49,Log unit,OC(=O)C(S(=O)(=O)CC)C,,25,?C
CC(C)S(=O)(=O)C(C)C(O)=O,alpha-iso-propylsulfonyl-propionic acid,2.52,Log unit,OC(=O)C(S(=O)(=O)C(C)C)C,,25,?C
[NH3+]C(CCCC(F)(F)F)C(O)=O,"epsilon,epsilon,epsilon-trifluoro-norleucine",2.164,Log unit,OC(=O)C(CCCC(F)(F)F)[NH3+],,25,?C
NC(CCCC(F)(F)F)C([O-])=O,"epsilon,epsilon,epsilon-trifluoro-norleucine",9.5,Log unit,NC(CCCC(F)(F)F)C(=O)[O-],,25,?C
CC(CC([NH3+])C(O)=O)C(F)(F)F,"delta,delta,delta-trifluoro-leucine",2.045,Log unit,OC(=O)C(CC(C(F)(F)F)C)[NH3+],,25,?C
CC(CC(N)C([O-])=O)C(F)(F)F,"delta,delta,delta-trifluoro-leucine",8.9,Log unit,NC(CC(C(F)(F)F)C)C(=O)[O-],,25,?C
[NH3+]C(CCC(F)(F)F)C(O)=O,"delta,delta,delta-trifluoro-norvaline",2.042,Log unit,OC(=O)C(CCC(F)(F)F)[NH3+],,25,?C
NC(CCC(F)(F)F)C([O-])=O,"delta,delta,delta-trifluoro-norvaline",8.9,Log unit,NC(CCC(F)(F)F)C(=O)[O-],,25,?C
CC(C([NH3+])C(O)=O)C(F)(F)F,"gamma,gamma,gamma-trifluoro-valine",1.537,Log unit,OC(=O)C(C(C(F)(F)F)C)[NH3+],,25,?C
CC(C(N)C([O-])=O)C(F)(F)F,"gamma,gamma,gamma-trifluoro-valine",8.1,Log unit,NC(C(C(F)(F)F)C)C(=O)[O-],,25,?C
[NH3+]C(CC(F)(F)F)C(O)=O,"gamma,gamma,gamma-trifluoro-alpha-amino-n-butyric acid",1.6,Log unit,OC(=O)C(CC(F)(F)F)[NH3+],,25,?C
NC(CC(F)(F)F)C([O-])=O,"gamma,gamma,gamma-trifluoro-alpha-amino-n-butyric acid",8.2,Log unit,NC(CC(F)(F)F)C(=O)[O-],,25,?C
[NH3+]C(C(O)C(F)(F)F)C(O)=O,"gamma,gamma,gamma-trifluoro-threonine",1.554,Log unit,OC(=O)C(C(C(F)(F)F)O)[NH3+],,25,?C
NC(C(O)C(F)(F)F)C([O-])=O,"gamma,gamma,gamma-trifluoro-threonine",7.82,Log unit,NC(C(C(F)(F)F)O)C(=O)[O-],,25,?C
NC(CC([O-])=O)C(F)(F)F,"gamma,gamma,gamma-trifluoro-beta-amino-n-butyric acid",5.8,Log unit,NC(C(F)(F)F)CC(=O)[O-],,25,?C
[NH3+]C(CO)C(O)=O,SERINE,2.21,Log unit,OC(=O)C([NH3+])CO,,25,?C
NC(CO)C([O-])=O,SERINE,9.1,Log unit,NC(C(=O)[O-])CO,,25,?C
OC1C[NH2+]C(C1)C(O)=O,hydroxyproline,1.92,Log unit,OC(=O)C1CC(O)C[NH2+]1,,25,?C
OC1CNC(C1)C([O-])=O,hydroxyproline,9.7,Log unit,N1CC(O)CC1C(=O)[O-],,25,?C
[NH3+]C(C(O)CC(O)=O)C(O)=O,beta-hydroxy-glutamic acid,2.32,Log unit,OC(=O)CC(O)C([NH3+])C(=O)O,,25,?C
[NH3+]C(C(O)CC(O)=O)C([O-])=O,beta-hydroxy-glutamic acid,4.2,Log unit,OC(=O)CC(O)C([NH3+])C(=O)[O-],,25,?C
NC(C(O)CC([O-])=O)C([O-])=O,beta-hydroxy-glutamic acid,9.6,Log unit,NC(C(CC(=O)[O-])O)C(=O)[O-],,25,?C
NC(=[NH2+])NOCCC([NH3+])C(O)=O,Canavanine,2.5,Log unit,OC(=O)C([NH3+])CCONC(=[NH2+])N,,25,?C
[NH3+]OCCC([NH3+])C(O)=O,canaline,2.4,Log unit,OC(=O)C([NH3+])CCO[NH3+],,25,?C
NOCCC([NH3+])C([O-])=O,canaline,3.7,Log unit,NOCCC(C(=O)[O-])[NH3+],,25,?C
CCSCC([NH3+])C(O)=O,s-ethyl-cysteine,2.03,Log unit,OC(=O)C(CSCC)[NH3+],,25,?C
CCSCC(N)C([O-])=O,s-ethyl-cysteine,8.6,Log unit,NC(CSCC)C(=O)[O-],,25,?C
OC(=O)CS(=O)(=O)C(F)(F)F,trifluoromethylsulfonyl-acetic acid,1.88,Log unit,OC(=O)CS(=O)(=O)C(F)(F)F,,25,?C
OC(=O)CN(=O)=O,nitro-acetic acid,1.48,Log unit,OC(=O)CN(=O)=O,,25,?C
CCOC(=O)C=CC(O)=O,3-ethoxycarbonyl-propenoic acid,3.396,Log unit,OC(=O)C=CC(=O)OCC,,25,?C
CCCCCC(O)=O,HEXANOIC ACID,4.825,Log unit,OC(=O)CCCCC,,25,?C
CC(=O)OC(CC(N(=O)=O)(N(=O)=O)N(=O)=O)C(O)=O,"2-acetoxy-4,4,4-trinitro-butanoic acid",2.02,Log unit,OC(=O)C(CC(N(=O)=O)(N(=O)=O)N(=O)=O)OC(=O)C,,25,?C
CC(=O)OC(C(O)=O)C(C)(N(=O)=O)N(=O)=O,"2-acetoxy-3,3-dinitro-butanoic acid",1.85,Log unit,OC(=O)C(C(N(=O)=O)(N(=O)=O)C)OC(=O)C,,25,?C
CC(C)C(C#N)C(O)=O,2-cyano-3-methyl-butanoic acid,2.4,Log unit,OC(=O)C(C#N)C(C)C,,25,?C
CC(Cl)CCCC(O)=O,5-chloro-hexanoic acid,4.6,Log unit,OC(=O)CCCC(Cl)C,,25,?C
OC(=O)C1=CC=CC(O)=C1O,"2,3-DIHYDROXY-BENZOIC ACID",2.914,Log unit,OC(=O)c1cccc(O)c1O,,25,?C
OC(=O)C1=CC(O)=CC=C1O,"2,5-dihydroxy-benzoic acid",2.9655,Log unit,OC(=O)c1cc(O)ccc1O,,25,?C
CCCCC=CC(O)=O,2-HEPTENOIC ACID,4.5,Log unit,OC(=O)C=CCCCC,,25,?C
CCCCC(=C)C(O)=O,2-methylene-hexanoic acid,4.8,Log unit,OC(=O)C(=C)CCCC,,25,?C
CCCC=C(C)C(O)=O,2-methyl-2-hexanoic acid,5.13,Log unit,OC(=O)C(=CCCC)C,,25,?C
CCOC(=O)C(CC)C(O)=O,2-ethoxycarbonyl-butanoic acid,3.43,Log unit,OC(=O)C(C(=O)OCC)CC,,25,?C
CCOC(=O)C(C)(C)C(O)=O,2-ethoxycarbonyl-2-methyl-propanoic acid,3.49,Log unit,OC(=O)C(C)(C)C(=O)OCC,,25,?C
CCCC(C)(C)C(O)=O,"2,2-dimethyl-pentanoic acid",4.969,Log unit,OC(=O)C(C)(C)CCC,,25,?C
OC(=O)CSC1CCCCC1,CYCLOHEXYLTHIOACETIC ACID,3.49,Log unit,OC(=O)CSC1CCCCC1,,25,?C
OC(=O)CSCC(O)=O,Thiodiacetic acid,3.57,Log unit,OC(=O)CSCC(=O)O,,25,?C
OC(=O)CSCCSCC(O)=O,ethylene-bis-thioacetic acid,3.475,Log unit,OC(=O)CSCCSCC(=O)O,,25,?C
OC(=O)CSCCCSCC(O)=O,trimethylene-bis-thioacetic acid,3.74,Log unit,OC(=O)CSCCCSCC(=O)O,,25,?C
OC(=O)CSCCCCSCC(O)=O,tetramethylene-bis-thioacetic acid,3.76,Log unit,OC(=O)CSCCCCSCC(=O)O,,25,?C
OC(=O)CSCCCCCSCC(O)=O,pentamethylene-bis-thioacetic acid,3.79,Log unit,OC(=O)CSCCCCCSCC(=O)O,,25,?C
CSC(C)C(O)=O,alpha-(methylthio)propionic acid,3.76,Log unit,OC(=O)C(SC)C,,25,?C
CCSC(C)C(O)=O,alpha-(ethylthio)-propionic acid,3.8,Log unit,OC(=O)C(SCC)C,,25,?C
CCCSC(C)C(O)=O,alpha-(n-propylthio)-propionic acid,3.82,Log unit,OC(=O)C(SCCC)C,,25,?C
CC(C)SC(C)C(O)=O,alpha-(isopropylthio)-propionic acid,3.78,Log unit,OC(=O)C(SC(C)C)C,,25,?C
CC(SCSC(C)C(O)=O)C(O)=O,alpha-methylene-bis-thiopropionic acid,3.68,Log unit,OC(=O)C(SCSC(C(=O)O)C)C,,25,?C
OC(=O)CCSCCC(O)=O,beta-thio-dipropionic acid,4.39,Log unit,OC(=O)CCSCCC(=O)O,,25,?C
OC(=O)CCCSCCCC(O)=O,gamma-thio-di-n-butyric acid,4.65,Log unit,OC(=O)CCCSCCCC(=O)O,,25,?C
CC(C(O)=O)S(C)(=O)=O,alpha-methylsulphonyl-propionic acid,2.44,Log unit,OC(=O)C(S(=O)(=O)C)C,,25,?C
CCCS(=O)(=O)C(C)C(O)=O,alpha-n-propylsulfonyl-propionic acid,2.51,Log unit,OC(=O)C(S(=O)(=O)CCC)C,,25,?C
OC(=O)C(Br)Br,dibromo-acetic acid,1.48,Log unit,OC(=O)C(Br)Br,,25,?C
OC(=O)C(F)F,difluoro-acetic acid,1.235,Log unit,OC(=O)C(F)F,,25,?C
OCCC(O)=O,3-HYDROXY-PROPANOIC ACID,4.505,Log unit,OC(=O)CCO,,25,?C
OC(C(F)(F)F)C(F)(F)F,"1,1,1,3,3,3-Hexafluoro-2-propanol",9.3,Log unit,OC(C(F)(F)F)C(F)(F)F,,25,?C
OC(=O)C=CBr,3-bromo-propenoic acid,3.515,Log unit,OC(=O)C=CBr,,25,?C
OC(=O)C=CI,3-iodo-propenoic acid,3.58,Log unit,OC(=O)C=CI,,25,?C
OC(=O)C=CN(=O)=O,3-nitro-propenoic acid,2.58,Log unit,OC(=O)C=CN(=O)=O,,25,?C
COCCC(O)=O,3-methoxy-propenoic acid,4.85,Log unit,OC(=O)CCOC,,25,?C
CCC(O)C(O)=O,2-hydroxy-butanoic acid,3.81,Log unit,OC(=O)C(O)CC,,25,?C
CC(Cl)=CC(O)=O,3-Chloro-2-butenoic acid,3.93,Log unit,OC(=O)C=C(Cl)C,,25,?C
OC(=O)C=CCCl,4-chloro-2-butenoic acid,4.15,Log unit,OC(=O)C=CCCl,,25,?C
OC(=O)CC=CCl,4-chloro-3-butenoic acid,4.07,Log unit,OC(=O)CC=CCl,,25,?C
CC(=CCl)C(O)=O,3-chloro-2-methyl-propenoic acid,4.04,Log unit,OC(=O)C(=CCl)C,,25,?C
CC(Br)=CC(O)=O,3-bromo-2-butenoic acid,3.74,Log unit,OC(=O)C=C(Br)C,,25,?C
CC(I)=CC(O)=O,3-iodo-2-butenoic acid,3.77,Log unit,OC(=O)C=C(I)C,,25,?C
OC(=O)CCC(N(=O)=O)(N(=O)=O)N(=O)=O,"4,4,4-trinitro-butanoic acid",3.64,Log unit,OC(=O)CCC(N(=O)=O)(N(=O)=O)N(=O)=O,,25,?C
OC(CC(N(=O)=O)(N(=O)=O)N(=O)=O)C(O)=O,"2-hydroxy-4,4,4-trinitro-butanoic acid",3.05,Log unit,OC(=O)C(CC(N(=O)=O)(N(=O)=O)N(=O)=O)O,,25,?C
CC(C(O)C(O)=O)(N(=O)=O)N(=O)=O,"2-hydroxy-3,3-dinitro-butanoic acid",2.37,Log unit,OC(=O)C(C(N(=O)=O)(N(=O)=O)C)O,,25,?C
CCCNC(C)C([O-])=O,N-n-propyl-alanine,10.2,Log unit,N(C(C(=O)[O-])C)CCC,,25,?C
CC(NC(C)=O)C(O)=O,dl-N-acetyl-alanine,3.7089,Log unit,OC(=O)C(NC(=O)C)C,,25,?C
CC(NC(N)=O)C(O)=O,dl-N-carbamoyl-alanine,3.8915,Log unit,OC(=O)C(NC(=O)N)C,,25,?C
[NH3+]CCC(O)=O,beta-amino-propionic acid,3.58,Log unit,OC(=O)CC[NH3+],,25,?C
NCCC([O-])=O,beta-amino-propionic acid,10.24,Log unit,NCCC(=O)[O-],,25,?C
CC(=O)NCCC(O)=O,beta-acetylamino-propionic acid,4.4443,Log unit,OC(=O)CCNC(=O)C,,25,?C
NC(=O)NCCC(O)=O,beta-ureido-propionic acid,4.4866,Log unit,OC(=O)CCNC(=O)N,,25,?C
CCC([NH3+])C(O)=O,DL-alpha-Amino-n-butyric acid,2.287,Log unit,OC(=O)C([NH3+])CC,,25,?C
CCC(N)C([O-])=O,DL-alpha-Amino-n-butyric acid,9.8,Log unit,NC(C(=O)[O-])CC,,25,?C
CCC(NC(C)=O)C(O)=O,alpha-acetylamino-n-butyric acid,3.7158,Log unit,OC(=O)C(NC(=O)C)CC,,25,?C