Smiles,Name,pKa,pKa Unit,Ionizable center smiles,IC group,Temperature,Temperature Unit
CC1[NH2+]C(C)C(CC1C(O)=O)C(O)=O,"3,5-dicarboxy-2,6-dimethylpyridine",2.02,Log unit,OC(=O)C1C([NH2+]C(C)C([CH]1)C(=O)O)C,co2h,25,?C
CC1[NH2+]C(C)C(CC1C(O)=O)C([O-])=O,"3,5-dicarboxy-2,6-dimethylpyridine",2.52,Log unit,OC(=O)C1C([NH2+]C(C)C([CH]1)C(=O)[O-])C,co2h,25,?C
CC1=NC(C)=C(C=C1C([O-])=O)C([O-])=O,"3,5-dicarboxy-2,6-dimethylpyridine",6.2,Log unit,n1c(C)c(cc(c1C)C(=O)[O-])C(=O)[O-],n,25,?C
[O-]C(=O)C1=CC([O-])=CC(=N1)C([O-])=O,"2,6-dicarboxy-4-hydroxypyridine",10.85,Log unit,n1c(cc([O-])cc1C(=O)[O-])C(=O)[O-],n,25,?C
OC1CC([NH2+]C(C1)C([O-])=O)C([O-])=O,"2,6-dicarboxy-4-hydroxypyridine",3.18,Log unit,OC1[CH]C([NH2+]C([CH]1)C(=O)[O-])C(=O)[O-],oh,25,?C
OC1CC([NH2+]C(C1)C([O-])=O)C(O)=O,"2,6-dicarboxy-4-hydroxypyridine",1.3,Log unit,OC(=O)C1[NH2+]C([CH]C(O)[CH]1)C(=O)[O-],co2h,25,?C
ClC1=CC=CN=C1Cl,"2,3-Dichloropyridine",-0.85,Log unit,n1c(Cl)c(Cl)ccc1,n,25,?C
ClC1=CC=CC(Cl)=N1,"2,6-Dichloropyridine",-2.86,Log unit,n1c(Cl)cccc1Cl,n,25,?C
ClC1=CC(Cl)=CN=C1,"3,5-Dichloropyridine",0.71,Log unit,n1cc(Cl)cc(c1)Cl,n,25,?C
OC1=CC(Cl)=NC(Cl)=C1,"2,6-dichloro-4-hydroxypyridine",5.9,Log unit,Oc1cc(Cl)nc(Cl)c1,oh,25,?C
COC1=NC=C(Cl)C=C1Cl,"3,5-dichloro-2-methoxypyridine",-1.4,Log unit,n1cc(Cl)cc(c1OC)Cl,n,25,?C
COC1=C(Cl)C=NC=C1Cl,"3,5-dichloro-4-methoxypyridine",1.14,Log unit,n1cc(Cl)c(c(c1)Cl)OC,n,25,?C
COC1=CC(Cl)=NC(Cl)=C1,"2,6-dichloro-4-methoxypyridine",-1.36,Log unit,n1c(Cl)cc(cc1Cl)OC,n,25,?C
CCOC(=O)C1=CC(C(=O)OCC)=C(C)N=C1C,"3,5-diethoxycarbonyl-2,6-dimethylpyridine",2.96,Log unit,n1c(C)c(cc(c1C)C(=O)OCC)C(=O)OCC,n,25,?C
CCOC(=O)C1=C(C)C(C(=O)CC)=C(C)N=C1C,"3,5-diethoxycarbonyl-2,4,6-trimethylpyridine",3.1,Log unit,n1c(C)c(c(C)c(c1C)C(=O)CC)C(=O)OCC,n,25,?C
COC1=NC(CO)=C(CO)C=C1,"2,3-di(hydroxymethyl)-6-methoxypyridine",2.98,Log unit,n1c(ccc(c1CO)CO)OC,n,25,?C
O=CC1=CC=CC(C=O)=N1,"2,6-diformylpyridine",1.94,Log unit,n1c(cccc1C=O)C=O,n,25,?C
COC1=CC=CC(OC)=N1,"2,6-Dimethoxypyridine",1.6,Log unit,n1c(cccc1OC)OC,n,25,?C
COC(=O)C1=C(N=CC=C1)C(=O)OC,"2,3-di(methoxycarbonyl)pyridine",-0.15,Log unit,n1cccc(c1C(=O)OC)C(=O)OC,n,25,?C
CC1=C(C)N=CC=C1,"2,3-dimethylpyridine",6.585,Log unit,n1cccc(c1C)C,n,25,?C
CC1=CC=NC(C)=C1,"2,4-dimethylpyridine",6.7,Log unit,n1ccc(C)cc1C,n,25,?C
CC1=CC=C(C)N=C1,"2,5-dimethylpyridine",6.435,Log unit,n1cc(ccc1C)C,n,25,?C
CC1=CC=CC(C)=N1,"2,6-dimethylpyridine",6.705,Log unit,n1c(cccc1C)C,n,25,?C
CC1=C(C)C=NC=C1,"3,4-dimethylpyridine",6.42,Log unit,n1cc(C)c(C)cc1,n,25,?C
CC1=CC(C)=CN=C1,"3,5-dimethylpyridine",6.15,Log unit,n1cc(C)cc(C)c1,n,25,?C
CN(C)C1=CC=NC=C1,4-DIMETHYLAMINOPYRIDINE,9.7,Log unit,n1ccc(N(C)C)cc1,n,25,?C
CN(C)CCC1=CC=CC=N1,2-(dimethylaminoethyl)-pyridine,8.75,Log unit,N(CCc1ncccc1)(C)C,nr2,25,?C
CN(C)CCC1=CN=CC=C1,3-(dimethylaminoethyl)-pyridine,8.86,Log unit,N(CCc1cnccc1)(C)C,nr2,25,?C
C[NH+](C)CCC1=CN=CC=C1,3-(dimethylaminoethyl)-pyridine,4.3,Log unit,n1cccc(c1)CC[NH+](C)C,n,25,?C
CCC1=CN=CC=C1N(C)C,4-dimethylamino-3-ethylpyridine,8.67,Log unit,n1ccc(N(C)C)c(c1)CC,n,25,?C
CN(C)CCC1=CC=NC=C1,4-(DIMETHYLAMINOETHYL)PYRIDINE,8.7,Log unit,N(CCc1ccncc1)(C)C,nr2,25,?C
C[NH+](C)CCC1=CC=NC=C1,4-(DIMETHYLAMINOETHYL)PYRIDINE,4.66,Log unit,n1ccc(CC[NH+](C)C)cc1,n,25,?C
CN(C)CCC(C1=CC=CC=C1)C1=CC=CC=N1,2[alpha-(2-dimethylaminoethyl)benzyl]-pyridine,9.26,Log unit,N(CCC(c1ncccc1)c1ccccc1)(C)C,nr2,25,?C
COC1=CC=C(CN(CC[NH+](C)C)C2=CC=CC=N2)C=C1,2-[(2-dimethylaminoethyl)(p-methoxybenzyl)amino]-pyridine,4.02,Log unit,n1ccccc1N(Cc1ccc(OC)cc1)CC[NH+](C)C,n,25,?C
C[NH+](C)CCN(CC1=CC=CS1)C1=NC=CC=C1,2-[(2-dimethylaminoethyl)-2-thienylamino]-pyridine,3.66,Log unit,n1c(N(Cc2sccc2)CC[NH+](C)C)cccc1,n,25,?C
C[NH+](C)CCN(CC1=CSC=C1)C1=NC=CC=C1,2-[(2-dimethylaminoethyl)-3-thienylamino]-pyridine,3.94,Log unit,n1c(N(Cc2cscc2)CC[NH+](C)C)cccc1,n,25,?C
CCCC1=CN=CC=C1N(C)C,4-dimethylamino-3-isopropylpyridine,8.26,Log unit,n1ccc(N(C)C)c(c1)CCC,n,25,?C
CN(C)CC1=CC=CC=N1,2-(DIMETHYLAMINOMETHYL)PYRIDINE,8.12,Log unit,N(Cc1ncccc1)(C)C,nr2,25,?C
CN(C)CC1=CN=CC=C1,3-(DIMETHYLAMINOMETHYL)PYRIDINE,8,Log unit,N(Cc1cnccc1)(C)C,nr2,25,?C
C[NH+](C)CC1=CN=CC=C1,3-(DIMETHYLAMINOMETHYL)PYRIDINE,3.17,Log unit,n1cccc(c1)C[NH+](C)C,n,25,?C
CN(C)CC1=CC=NC=C1,4-(DIMETHYLAMINOMETHYL)PYRIDINE,7.66,Log unit,N(Cc1ccncc1)(C)C,nr2,25,?C
C[NH+](C)CC1=CC=NC=C1,4-(DIMETHYLAMINOMETHYL)PYRIDINE,3.39,Log unit,n1ccc(C[NH+](C)C)cc1,n,25,?C
CN(C)C1=CC=NC=C1C,4-dimethylamino-3-methylpyridine,8.69,Log unit,n1ccc(N(C)C)c(c1)C,n,25,?C
C[NH+](C)C1=CC=C(C=C1)N=NC1=CC=CC=N1,2-(4-dimethylamino)phenylazopyridine,2,Log unit,n1ccccc1N=Nc1ccc([N+](C)C)cc1,n,25,?C
CN(C)C1=CC=C(C=C1)N=NC1=CC=NC=C1,4-(4-dimethylamino)phenylazopyridine,5.4,Log unit,n1ccc(N=Nc2ccc(N(C)C)cc2)cc1,n,25,?C
CC(=O)N=C(N)N,Acetylguanidine,8.26,Log unit,C(=NC(=O)C)(N)N,neth,25,?C
NN=C(N)N,aminoguanidine,3,Log unit,C(=NN)(N)N,neth,25,?C
NC(N)=NC1=CC2=C(C=C1)C=C1C=CC=CC1=C2,2-anthrylguanidine,11,Log unit,c1(cc2cc3ccccc3cc2cc1)N=C(N)N,neth,25,?C
CNC(=N)NC,"N,N'-Dimethylguanidine",13.9,Log unit,C(=N)(NC)NC,neth,25,?C
CN(C)C(N)=NN(=O)=O,"N,N-Dimethyl-N'-nitroguanidine",-1.3,Log unit,C(=NN(=O)=O)(N(C)C)N,neth,25,?C
N=C(NC1=CC=CC=C1)NC1=CC=CC=C1,"N,N'-Dphenylguanidine",10.3,Log unit,C(=N)(Nc1ccccc1)Nc1ccccc1,neth,25,?C
CNC(N)=N,METHYLGUANIDINE,13.7,Log unit,C(=N)(NC)N,neth,25,?C
CNC(N)=NN(=O)=O,N-Methyl-N'-nitroguanidine,-0.9,Log unit,C(=NN(=O)=O)(NC)N,neth,25,?C
NC(N)=NC1=CC2=C(C=CC=C2)C=C1,2-napthylguanidine,10.7,Log unit,c1(cc2ccccc2cc1)N=C(N)N,neth,25,?C
NC(N)=NN(=O)=O,nitro-guanidine,-0.93,Log unit,C(=NN(=O)=O)(N)N,neth,25,?C
NC(N)=NN=O,nitroso-Guanidine,2.13,Log unit,C(=NN=O)(N)N,neth,25,?C
NC(N)=NC#N,Cyano-Guanidine,-0.4,Log unit,C(=NC#N)(N)N,neth,25,?C
CN=C(N(C)C)N(C)C,pentmethylaguanidine,13.8,Log unit,C(=NC)(N(C)C)N(C)C,neth,25,?C
NC(N)=NC1=CC=CC=C1,N-Phenylguanidine,10.8,Log unit,C(=Nc1ccccc1)(N)N,neth,25,?C
CN(C)C(=N)N(C)C,"N,N,N',N'-tetramethylaguanidine",13.9,Log unit,C(=N)(N(C)C)N(C)C,neth,25,?C
CNC(=NC)N(C)C,"N,N,N',N''-tetramethylaguanidine",13.9,Log unit,C(=NC)(N(C)C)NC,neth,25,?C
CNC(=N)N(C)C,"N,N',N'-trimethylaguanidine",13.9,Log unit,C(=N)(N(C)C)NC,neth,25,?C
CNC(=NN(=O)=O)N(C)C,"N,N',N'-tetra-nitro-methylaguanidine",-0.82,Log unit,C(=NN(=O)=O)(N(C)C)NC,neth,25,?C
CNC(NC)=NC,"N,N',N''-tetramethylaguanidine",13.9,Log unit,C(=NC)(NC)NC,neth,25,?C
OC1=CC(=C2C=NNC2=C1)S(=O)=O,33 1H-6-hydroxy-4-sulfonicindazole,8.85,Log unit,Oc1cc(c2cn[nH]c2c1)[S](=O)=O,oh,25,?C
OC1=C2NN=CC2=C(C=C1)S(=O)=O,33 1H-7-hydroxy-4-sulfonicindazole,7.6,Log unit,Oc1ccc(c2cn[nH]c12)[S](=O)=O,oh,25,?C
OC1=C2NN=CC2=CC(=C1)S(=O)=O,33 1H-7-hydroxy-5-sulfonicindazole,8,Log unit,Oc1cc(cc2cn[nH]c12)[S](=O)=O,oh,25,?C
OC1=CC(=C2NN=CC2=C1)S(=O)=O,33 1H-7-hydroxy-5-sulfonicindazole,8.1,Log unit,Oc1cc2cn[nH]c2c(c1)[S](=O)=O,oh,25,?C
C1=CC=NC=C1,pyridine,5.21,Log unit,n1ccccc1,n,25,?C
CC(=O)NC1=CN=CC=C1,3-Acetamidopyridine,4.41,Log unit,n1cccc(c1)NC(=O)C,n,25,?C
CC(=O)NC1=CC=NC=C1,4-Acetamidopyridine,5.87,Log unit,n1ccc(NC(=O)C)cc1,n,25,?C
NC1=CC=CC=N1,2-Aminopyridine,6.765,Log unit,n1ccccc1N,n,25,?C
CC(=O)C1=CC=CC=N1,2-acetylpyridine,2.545,Log unit,n1ccccc1C(=O)C,n,25,?C
CC(=O)C1=CN=CC=C1,3-ACETYLPYRIDINE,3.18,Log unit,n1cccc(c1)C(=O)C,n,25,?C
CC(=O)C1=CC=NC=C1,4-acetylpyridine,3.38,Log unit,n1ccc(C(=O)C)cc1,n,25,?C
NC1=CN=CC=C1,3-Amino-pyridine,6.03,Log unit,n1cccc(c1)N,n,25,?C
NC1=CC=NC=C1,4-amino-pyridine,9.18,Log unit,n1ccc(N)cc1,n,25,?C
NC1=CC=NC=C1Br,4-AMINO-3-BROMOPYRIDINE,7.05,Log unit,n1cc(Br)c(cc1)N,n,25,?C
NC1=CC=CC(Br)=N1,2-AMINO-6-BROMOPYRIDINE,2.6,Log unit,n1c(Br)cccc1N,n,25,?C
NC1=CC(=NC(=C1)C([O-])=O)C([O-])=O,"4-amino-2,6-dicarboxypyridine",9.2,Log unit,n1c(cc(N)cc1C(=O)[O-])C(=O)[O-],n,25,?C
NC1CC([NH2+]C(C1)C([O-])=O)C(O)=O,"4-amino-2,6-dicarboxypyridine",1.8,Log unit,OC(=O)C1[NH2+]C([CH]C([CH]1)N)C(=O)[O-],co2h,25,?C
NC1[NH2+]CCCC1C(O)=O,2-amino-3-carboxypyridine,2.4,Log unit,OC(=O)C1C([NH2+][CH][CH][CH]1)N,co2h,25,?C
NC1=C(C=CC=N1)C([O-])=O,2-amino-3-carboxypyridine,6.58,Log unit,n1cccc(c1N)C(=O)[O-],n,25,?C
NC1CCC[NH2+]C1C(O)=O,3-amino-2-carboxypyridine,1.5,Log unit,OC(=O)C1[NH2+][CH][CH][CH]C1N,co2h,25,?C
NC1=CC(=CC=N1)C([O-])=O,2-amino-4-carboxypyridine,6.37,Log unit,n1ccc(C(=O)[O-])cc1N,n,25,?C
NC1=CC(Cl)=CC=N1,2-amino-4-chloropyridine,5.7,Log unit,n1ccc(Cl)cc1N,n,25,?C
NC1=NC=C(Cl)C=C1,2-Amino-5-chloropyridine,4.83,Log unit,n1cc(Cl)ccc1N,n,25,?C
NC1=CC=C(C=N1)C#N,2-Amino-5-cyanopyridine,3.41,Log unit,n1cc(ccc1N)C#N,n,25,?C
NC1=NC=C(Cl)C=C1Cl,"2-Amino-3,5-dichloropyridine",2.75,Log unit,n1cc(Cl)cc(c1N)Cl,n,25,?C
NC1=CC(Cl)=NC(Cl)=C1,"4-Amino-2,6-dichloropyridine",1.17,Log unit,n1c(Cl)cc(cc1Cl)N,n,25,?C
NC1=CN=C(Cl)C=C1Cl,"5-amino-2,4-dichloropyridine",0.73,Log unit,n1c(Cl)cc(c(c1)N)Cl,n,25,?C
CC1=CC(N)=NC(C)=C1,"2-AMINO-4,6-DIMETHYLPYRIDINE",7.84,Log unit,n1c(cc(C)cc1C)N,n,25,?C
CC1=CN=CC(C)=C1N,"4-AMINO-3,5-DIMETHYLPYRIDINE",9.53,Log unit,n1cc(c(N)c(c1)C)C,n,25,?C
CCOC(=O)C1=C(N)N=CC=C1,2-amino-3-ethoxycarbonylpyridine,4.73,Log unit,n1cccc(c1N)C(=O)OCC,n,25,?C
CCOC(=O)C1=CC=NC(N)=C1,2-amino-4-ethoxycarbonylpyridine,5.25,Log unit,n1ccc(C(=O)OCC)cc1N,n,25,?C
[NH3+]CCC1=CC=CC=N1,2-(2-aminoethyl)-pyridine,3.8,Log unit,n1ccccc1CC[NH3+],n,25,?C
NCCC1=CC=CC=N1,2-(2-aminoethyl)-pyridine,9.75,Log unit,NCCc1ncccc1,nr2,25,?C
NC1=CC([O-])=CC=N1,2-amino-4-hydroxypyridine,10.7,Log unit,n1ccc([O-])cc1N,n,25,?C
NC1=CC=CC([O-])=N1,2-amino-6-hydroxypyridine,11.38,Log unit,n1c(cccc1N)[O-],n,25,?C
NC1=C([O-])N=CC=C1,3-Amino-2-hydroxypyridine,12.57,Log unit,n1cccc(c1[O-])N,n,25,?C
NC1=CN=CC=C1[O-],3-amino-4-hydroxypyridine,11.38,Log unit,n1ccc([O-])c(c1)N,n,25,?C
NC1C[NH2+]CCC1O,3-amino-4-hydroxypyridine,3.84,Log unit,OC1[CH][CH][NH2+][CH]C1N,oh,25,?C
NC1=CC=NC([O-])=C1,4-amino-2-hydroxypyridine,13.54,Log unit,n1ccc(N)cc1[O-],n,25,?C
NC1=CC=C([O-])N=C1,5-amino-2-hydroxypyridine,11.65,Log unit,n1cc(ccc1[O-])N,n,25,?C
CCC1=CN=CC=C1N,4-AMINO-3-ETHYLPYRIDINE,9.49,Log unit,n1ccc(N)c(c1)CC,n,25,?C
CC(C)C1=CN=CC=C1N,4-AMINO-3-ISOPROPYLPYRIDINE,9.59,Log unit,n1ccc(N)c(c1)C(C)C,n,25,?C
NC1C[NH2+]CCC1S,3-amino-4-mercaptopyridine,1.6,Log unit,SC1[CH][CH][NH2+][CH]C1N,sh,25,?C
NC1=CN=CC=C1[S-],3-amino-4-mercaptopyridine,9.2,Log unit,n1ccc([S-])c(c1)N,n,25,?C
COC1=CC=NC(N)=C1,2-amino-4-methoxypyridine,7.62,Log unit,n1ccc(OC)cc1N,n,25,?C
COC1=CC=CC(N)=N1,2-amino-6-methoxypyridine,4.64,Log unit,n1c(cccc1OC)N,n,25,?C
COC1=C(N)C=CC=N1,3-amino-2-methoxypyridine,3.35,Log unit,n1cccc(c1OC)N,n,25,?C
COC1=CC=NC=C1N,3-amino-4-methoxypyridine,7.41,Log unit,n1ccc(OC)c(c1)N,n,25,?C
COC1=CC(N)=CC=N1,4-amino-2-methoxypyridine,7.05,Log unit,n1ccc(N)cc1OC,n,25,?C
COC1=CC=C(N)C=N1,5-Amino-2-methoxypyridine,4.28,Log unit,n1cc(ccc1OC)N,n,25,?C
COC(=O)C1=C(N)N=CC=C1,2-amino-3-methoxycarbonylpyridine,4.78,Log unit,n1cccc(c1N)C(=O)OC,n,25,?C
COC(=O)C1=CC=NC(N)=C1,2-amino-4-methoxycarbonylpyridine,5.21,Log unit,n1ccc(C(=O)OC)cc1N,n,25,?C
[NH3+]CC1=CC=CC=N1,2-aminomethylpyridine,3.1,Log unit,n1ccccc1C[NH3+],n,25,?C
NCC1=CC=CC=N1,2-aminomethylpyridine,8.78,Log unit,NCc1ncccc1,nr2,25,?C
CC1=C(N)N=CC=C1,2-Amino-3-methylpyridine,7.24,Log unit,n1cccc(c1N)C,n,25,?C
CC1=CC=NC(N)=C1,2-amino-4-methylpyridine,7.48,Log unit,n1ccc(C)cc1N,n,25,?C
CC1=CC=C(N)N=C1,2-AMINO-5-METHYLPYRIDINE,7.22,Log unit,n1cc(ccc1N)C,n,25,?C
CC1=CC=CC(N)=N1,2-Amino-6-methylpyridine,7.41,Log unit,n1c(cccc1C)N,n,25,?C
NCC1=CN=CC=C1,3-aminomethylpyridine,8.04,Log unit,NCc1cnccc1,nr2,25,?C
CC1=CN=CC=C1N,4-Amino-3-methylpyridine,9.45,Log unit,n1ccc(N)c(c1)C,n,25,?C
CC1=CC=C(CN)C=N1,3-aminomethyl-6-methylpyridine,8.764999,Log unit,NCc1cnc(cc1)C,nr2,25,?C
NC1=CC=C(C=C1)C1CCCC[NH2+]1,2-p-aminophenylpyridine,2.47,Log unit,Nc1ccc(C2[NH2+][CH][CH][CH][CH]2)cc1,nr2,25,?C
NC1=CC=C(C=C1)C1CC[NH2+]CC1,2-p-aminophenylpyridine,2.75,Log unit,Nc1ccc(C2[CH][CH][NH2+][CH][CH]2)cc1,nr2,25,?C
CC1=C(N)N=CC(=C1)N(=O)=O,2-Amino-3-methyl-5-nitropyridine,3.58,Log unit,n1cc(cc(c1N)C)N(=O)=O,n,25,?C
CC1=CC(=C(N)N=C1)N(=O)=O,2-amino-5-methyl-3-nitropyridine,2.98,Log unit,n1cc(cc(c1N)N(=O)=O)C,n,25,?C
NC1=C(C=CC=N1)N(=O)=O,2-Amino-3-nitropyridine,2.33,Log unit,n1cccc(c1N)N(=O)=O,n,25,?C
NC1=CC=C(C=N1)N(=O)=O,2-Amino-5-nitropyridine,2.78,Log unit,n1cc(ccc1N)N(=O)=O,n,25,?C
NC1=CC=NC=C1N(=O)=O,4-Amino-3-nitropyridine,5.04,Log unit,n1ccc(N)c(c1)N(=O)=O,n,25,?C
NC1=CC=C(C=C1)C1=CC=CC=N1,2-p-aminophenylpyridine,5.7,Log unit,n1ccccc1c1ccc(N)cc1,n,25,?C
NC1=CC=C(C=C1)C1=CC=NC=C1,4-p-aminophenyl-pyridine,6.26,Log unit,n1ccc(c2ccc(N)cc2)cc1,n,25,?C
CC1=NC(C)=C(C)C(N)=C1C,"4-amino-2,3,5,6-tetramethylpyridine",10.57,Log unit,n1c(c(c(N)c(c1C)C)C)C,n,25,?C
O=C(NC1=CC=CC=N1)C1=CC=CC=C1,2-benzamidopyridine,3.33,Log unit,n1ccccc1NC(=O)c1ccccc1,n,25,?C
O=C(NC1=CN=CC=C1)C1=CC=CC=C1,3-benzamidopyridine,3.8,Log unit,n1cccc(c1)NC(=O)c1ccccc1,n,25,?C
O=C(NC1=CC=NC=C1)C1=CC=CC=C1,4-Benzamidopyridine,5.32,Log unit,n1ccc(NC(=O)c2ccccc2)cc1,n,25,?C
C(C1=CC=CC=C1)C1=CC=CC=N1,2-Benzylpyridine,5.13,Log unit,n1ccccc1Cc1ccccc1,n,25,?C
C[NH+](C)CCN(CC1=CC=CC=C1)C1=CC=CC=N1,2-[benzyl(2-dimethylaminoethyl)amino]-pyridine,3.92,Log unit,n1ccccc1N(Cc1ccccc1)CC[NH+](C)C,n,25,?C
C(C1=CC=CC=C1)C1=CC=NC=C1,4-Benzylpyridine,5.59,Log unit,n1ccc(Cc2ccccc2)cc1,n,25,?C
CC1=C(OCC2=CC=CC=C2)C(C)=C(CO)C=N1,"3-benzyloxy-5-hydroxymethyl-2,4-dimethylpyridine",5.52,Log unit,n1c(c(OCc2ccccc2)c(c(c1)CO)C)C,n,25,?C
C(SC1=CC=CC=N1)C1=CC=CC=C1,2-benzylthiopyridine,3.23,Log unit,n1ccccc1SCc1ccccc1,n,25,?C
C(SC1=CC=NC=C1)C1=CC=CC=C1,4-benzylthiopyridine,5.41,Log unit,n1ccc(SCc2ccccc2)cc1,n,25,?C
BrC1=NC=CC=C1,2-Bromopyridine,0.8049999,Log unit,n1c(Br)cccc1,n,25,?C
NC1=CC=C(O)C2=C1C(=O)C1=CC=CC=C1C2=O,Disperse Red 15,0.78,Log unit,Nc1ccc(O)c2C(=O)c3ccccc3C(=O)c12,nr2,25,?C
NC1=CC=C(N)C2=C1C(=O)C1=CC=CC=C1C2=O,DISPERSE VIOLET 1,1.28,Log unit,Nc1ccc(N)c2C(=O)c3ccccc3C(=O)c12,nr2,25,?C
CNC1=CC=C(NC)C2=C1C(=O)C1=CC=CC=C1C2=O,Disperse Blue 14,1.8,Log unit,N(c1ccc(NC)c2C(=O)c3ccccc3C(=O)c12)C,nr2,25,?C
OCCNC1=CC=C(NCCO)C2=C1C(=O)C1=CC=CC=C1C2=O,Disperse Blue 23,0.97,Log unit,N(c1ccc(NCCO)c2C(=O)c3ccccc3C(=O)c12)CCO,nr2,25,?C
NN,HYDRAZINE,7.7,Log unit,NN,nr2,25,?C
N[NH3+],HYDRAZINE,-0.9,Log unit,N[NH3+],nr2,25,?C
CCNNCC,"N,N'-di-ethylhydrazine",7.48,Log unit,N(CC)NCC,nr2,25,?C
CNNC,"N,N'-di-methylhydrazine",7.32,Log unit,N(C)NC,nr2,25,?C
CC(N)=N,amidinomethane,12.25,Log unit,N=C(N)C,neth,25,?C
NC(CC(N)=NO)=NO,"1,3-diamino-1,3-bishydroxyiminopropane",4.43,Log unit,C(=NO)(N)CC(=NO)N,neth,25,?C
NC(=NO)C(N)=NO,"1,2-diamino-1,2-bishydroxyiminoethane",2.6,Log unit,ON=C(N)C(=NO)N,neth,25,?C
NC(CCC(N)=NO)=NO,"1,4-diamino-1,4-bishydroxyiminobutane",5.63,Log unit,ON=C(N)CCC(=NO)N,neth,25,?C
NC(CCC(N)=[NH+]O)=NO,"1,4-diamino-1,4-bishydroxyiminobutane",3.3,Log unit,O[NH+]=C(N)CCC(=NO)N,neth,25,?C
N=C1CCCC1,cyclopentanimine,8.95,Log unit,N=C1CCCC1,neth,25,?C
N=C1CCCCC1,cyclohexanimine,9.15,Log unit,N=C1CCCCC1,neth,25,?C
CN=C1CCCCC1C,C-N-dimethylcyclohexanimine,9.47,Log unit,C1(=NC)CCCCC1C,neth,25,?C
CC1CCCCC1=N,C-methylcyclohexanimine,9.38,Log unit,N=C1CCCCC1C,neth,25,?C
CN=C1CCCCC1,N-methylcyclohexanimine,9.43,Log unit,C1(=NC)CCCCC1,neth,25,?C
CCNC1=CC(CC(C)(C)C1)=NCC,"1-ethylamino-3-ethylimino-5,5-dimethylcyclohex-1-ene",12.13,Log unit,C1(=NCC)C=C(CC(C)(C)C1)NCC,neth,25,?C
CC(=N)NC1=CC=C(Cl)C=C1,N-acetimido-4-chloroaniline,9.5,Log unit,C(=N)(Nc1ccc(Cl)cc1)C,neth,25,?C
CCOC1=CC=C(NC(C)=NC2=CC=C(OCC)C=C2)C=C1,4-ethoxy-N-[1-(p-ethoxyphenylimino)ethyl]aniline,9.27,Log unit,c1(ccc(cc1)OCC)N=C(Nc1ccc(OCC)cc1)C,neth,25,?C
ClC1=CC=C(C=NC2=CC=CC=C2)C=C1,N-4-chlorobenzylideneaniline,2.8,Log unit,C(=Nc1ccccc1)c1ccc(Cl)cc1,neth,25,?C
CC(NC1=CC=CC=C1)=NC1=CC=CC=C1,N-(1-phenyliminoethyl)aniline,8.298,Log unit,c1(ccccc1)N=C(Nc1ccccc1)C,neth,25,?C
NC(=N)CC1=CC=CC=C1,amidinomethyl-benzzne,11.87,Log unit,C(=N)(Cc1ccccc1)N,neth,25,?C
NC(=N)C1=CC=CC=C1,guanidinobenzene,11.3,Log unit,C(=N)(c1ccccc1)N,neth,25,?C
NC(=N)C1=CC=C(O)C=C1,4-hydroxy-guanidinobenzene,12.5,Log unit,C(=N)(c1ccc(O)cc1)N,neth,25,?C
NC(=N)C1=CC=C(C=C1)C([O-])=O,4-carboxy-guanidinobenzene,10.9,Log unit,C(=N)(c1ccc(C(=O)[O-])cc1)N,neth,25,?C
COC1=CC=C(C=C1)C(N)=N,4-methoxy-guanidinobenzene,11.8,Log unit,C(=N)(c1ccc(OC)cc1)N,neth,25,?C
NC(=N)C1=CC=C(C=C1)N(=O)=O,4-nitro-guanidinobenzene,9.58,Log unit,C(=N)(c1ccc(N(=O)=O)cc1)N,neth,25,?C
CC(O)(C(N)=N)C1=CC=CC=C1,(1-amidino-1-hydroxy)ethylbenzene,10.96,Log unit,C(=N)(C(c1ccccc1)(O)C)N,neth,25,?C
NC(=N)C(O)C1=CC=CC=C1,(C-amidino-C-hydroxy)methylbenzene,11.1,Log unit,C(=N)(C(c1ccccc1)O)N,neth,25,?C
CCC(O)(C(N)=N)C1=CC=CC=C1,(1-amidineo-1-hydroxy)propylbenzene,11.4,Log unit,C(=N)(C(c1ccccc1)(O)CC)N,neth,25,?C
NC(CC1=CC=CC=C1)=NO,(2-amino-2-hydroxyimino)ethylbenzene,5.2,Log unit,C(=NO)(Cc1ccccc1)N,neth,25,?C
NC(=NO)C1=CC=CC=C1,C-amino-C-hydroxyiminoethylbenzene,4.79,Log unit,C(=NO)(c1ccccc1)N,neth,25,?C
CC1=CC=CC=C1C(N)=NO,1-(C-amino-C-hydroxyiminomethyl)-2-methylbenzene,3.99,Log unit,C(=NO)(c1ccccc1C)N,neth,25,?C
CC1=CC=C(C=C1)C(N)=NO,1-(C-amino-C-hydroxyiminomethyl)-4-methylbenzene,5.1,Log unit,C(=NO)(c1ccc(cc1)C)N,neth,25,?C
NC(=N)NC1=CC=C(Cl)C=C1,1-chloro-4-guanidinobenzene,10.9,Log unit,C(=N)(Nc1ccc(Cl)cc1)N,neth,25,?C
ClC1=CC=CC=C1C(=N)C1=CC=CC=C1,1-chloro-2-iminobenzylbenzene,5.9,Log unit,C(=N)(c1c(Cl)cccc1)c1ccccc1,neth,25,?C
ClC1=CC=CC=C1C(=N)C1=CC=CC=C1,1-chloro-3-iminobenzylbenzene,6,Log unit,C(=N)(c1c(Cl)cccc1)c1ccccc1,neth,25,?C
CNC(=N)NC1=CC=C(Cl)C=C1,1-chloro-4-N3-methylguanidinobenzene,11.15,Log unit,C(=N)(Nc1ccc(Cl)cc1)NC,neth,25,?C
OC1=CC=C(C(=N)C2=CC=CC=C2)C(O)=C1,"1,3-dihydroxy-4-iminobenzylbenzene",9.3,Log unit,C(=N)(c1ccccc1)c1ccc(O)cc1O,neth,25,?C
OC1=CC(=CC=C1)C(=N)C1=CC=CC=C1,1-hydroxy-3-iminobenzylbenzene,7,Log unit,C(=N)(c1ccccc1)c1cccc(c1)O,neth,25,?C
OC1=CC=C(C=C1)C(=N)C1=CC=CC=C1,1-hydroxy-4-iminobenzylbenzene,7.85,Log unit,C(=N)(c1ccccc1)c1ccc(O)cc1,neth,25,?C
COC1=CC(=CC=C1O)C(=N)C1=CC=CC=C1,1-hydroxy-4-iminobenzyl-3-methoxybenzene,8.3,Log unit,C(=N)(c1ccccc1)c1ccc(O)c(c1)OC,neth,25,?C
N=C(C1=CC=CC=C1)C1=CC=CC=C1,iminobenzylbenzene,7.48,Log unit,C(=N)(c1ccccc1)c1ccccc1,neth,25,?C
COC1=CC=C(C(=N)C2=CC=CC=C2)C(OC)=C1,"1-iminobenzyl-2,4-dimethoxybenzene",8.3,Log unit,C(=N)(c1ccccc1)c1ccc(OC)cc1OC,neth,25,?C
CC1=CC=C(C(=N)C2=CC=CC=C2)C(C)=C1,"1-iminobenzyl-2,4-dimethylbenzene",7.5,Log unit,C(=N)(c1ccccc1)c1ccc(C)cc1C,neth,25,?C
CC1=CC=C(C)C(=C1)C(=N)C1=CC=CC=C1,"1-iminobenzyl-2,5-dimethylbenzene",7.5,Log unit,C(=N)(c1ccccc1)c1cc(ccc1C)C,neth,25,?C
CC1=CC=CC(C)=C1C(=N)C1=CC=CC=C1,"1-iminobenzyl-2,6-dimethylbenzene",8,Log unit,C(=N)(c1ccccc1)c1c(cccc1C)C,neth,25,?C
CC1=CC(=CC(C)=C1)C(=N)C1=CC=CC=C1,"1-iminobenzyl-3,5-dimethylbenzene",7.1,Log unit,C(=N)(c1ccccc1)c1cc(cc(c1)C)C,neth,25,?C
COC1=CC=CC=C1C(=N)C1=CC=CC=C1,1-iminobenzyl-2-methoxybenzene,7.3,Log unit,C(=N)(c1ccccc1)c1ccccc1OC,neth,25,?C
COC1=CC(=CC=C1)C(=N)C1=CC=CC=C1,1-iminobenzyl-3-methoxybenzene,7.7,Log unit,C(=N)(c1ccccc1)c1cccc(c1)OC,neth,25,?C
CC1=CC=CC=C1C(=N)C1=CC=CC=C1,1-iminobenzyl-2-methylbenzene,7.5,Log unit,C(=N)(c1ccccc1)c1ccccc1C,neth,25,?C
COC(=N)C1=CC=CC=C1,iminomethoxymethylbenzene,6.1,Log unit,C(=N)(c1ccccc1)OC,neth,25,?C
OC1=CC2=C(C=CC=C2)C=C1C1=[NH+]CCN1,"Imidazoline, 2-[3-(2-hyddroxynaphthyl)]-",7.01,Log unit,Oc1c(C2=[N+]CCN2)cc2ccccc2c1,oh,25,?C
NC(=N)NC(N)=N,DIGUANIDE,12.5,Log unit,C(=N)(N)NC(=N)N,neth,25,?C
NC(=N)NC(N)=[NH2+],DIGUANIDE,3.4,Log unit,C(=N)(NC(=[NH2+])N)N,neth,25,?C
NC(=N)NC(=N)NC1=CC2=C(C=C1)C=C1C=CC=CC1=C2,N1-(2-anthryl)diguanide,11,Log unit,C(=N)(Nc1cc2cc3ccccc3cc2cc1)NC(=N)N,neth,25,?C
NC(=N)NC(=N)NC1=CC2=C(C=C1)C=C1C=CC=CC1=C2,N1-(2-anthryl)diguanide,10.4,Log unit,C(=N)(NC(=N)Nc1cc2cc3ccccc3cc2cc1)N,neth,25,?C
NC(=N)NC(N)=NCC1=CC=CC=C1,benzyl-diguanide,11.25,Log unit,C(=N)(N)NC(=NCc1ccccc1)N,neth,25,?C
NC(=[NH2+])NC(N)=NCC1=CC=CC=C1,benzyl-diguanide,2.7,Log unit,C(=NCc1ccccc1)(NC(=[NH2+])N)N,neth,25,?C
CC(C)NC(=N)NC(=N)NC1=CC=C(Br)C=C1,N1-(4-bromophenyl)-N5-isopropyl-diguanide,11.4,Log unit,C(=N)(Nc1ccc(Br)cc1)NC(=N)NC(C)C,neth,25,?C
CC(C)NC(=[NH2+])NC(=N)NC1=CC=C(Br)C=C1,N1-(4-bromophenyl)-N5-isopropyl-diguanide,2.2,Log unit,C(=N)(Nc1ccc(Br)cc1)NC(=[NH2+])NC(C)C,neth,25,?C
CCCCN=C(N)NC(N)=N,butyl-diguanide,11.28,Log unit,C(=N)(N)NC(=NCCCC)N,neth,25,?C