Smiles,Name,pKa,pKa Unit,Ionizable center smiles,IC group,Temperature,Temperature Unit
[H]OC(=O)C([H])([H])C([H])([H])[C@@]([H])(C([H])([H])[H])[C@@]1([H])C([H])([H])C([H])([H])[C@@]2([H])[C@]3([H])[C@@]([H])(O[H])C([H])([H])[C@]4([H])C([H])([H])[C@]([H])(O[H])C([H])([H])C([H])([H])[C@]4(C([H])([H])[H])[C@@]3([H])C([H])([H])C([H])([H])[C@]12C([H])([H])[H],Ursodiol,5.04,Log unit,OC(=O)CCC(C1CCC2C3C(CC4CC(O)CCC4(C)C3CCC12C)O)C,,,-
CC(=O)NC1=CC=C(O)C=C1,Acetaminophen,9.63,Log unit,Oc1ccc(NC(=O)C)cc1,,,-
CC(C)C1(CC=C)C(=O)NC(=O)NC1=O,Barbituric acid,8.01,Log unit,N1C(=O)NC(=O)C(C1=O)(C(C)C)CC=C,,,-
CCC1(CC=C(C)C)C(=O)NC(=O)NC1=O,Barbituric acid,8.06,Log unit,N1C(=O)C(C(=O)NC1=O)(CC=C(C)C)CC,,,-
CCC1(CCC(C)C)C(=O)NC(=O)NC1=O,Barbituric acid,7.95,Log unit,N1C(=O)C(C(=O)NC1=O)(CCC(C)C)CC,,,-
O=C1NC(=O)C2(CCC2)C(=O)N1,Barbituric acid,8.82,Log unit,N1C(=O)C2(CCC2)C(=O)NC1=O,,,-
CCCC(C)C1(CC)C(=O)NC(=O)NC1=O,Barbituric acid,8.13,Log unit,N1C(=O)C(C(=O)NC1=O)(C(CCC)C)CC,,,-
OC(=O)C1=CC=CC=C1,Benzoic acid,4.207,Log unit,OC(=O)c1ccccc1,,,-
CCC(O)=O,Propionic Acid,4.874,Log unit,OC(=O)CC,,,-
CC(C)C1(CC=C(C)C)C(=O)NC(=O)NC1=O,Barbituric acid,8.19,Log unit,N1C(=O)C(C(=O)NC1=O)(CC=C(C)C)C(C)C,,,-
COC(=O)[C@@H]1C2CCC(C[C@@H]1OC(=O)C1=CC=CC=C1)N2C,Benzoylecgonine methyl ester,8.7,Log unit,N1(C2C(C(CC1CC2)OC(=O)c1ccccc1)C(=O)OC)C,,,-
CN(C)[C@H]1[C@@H]2C[C@H]3C(=C(O)[C@]2(O)C(=O)C(C(N)=O)=C1O)C(=O)C1=C(O)C=CC(Cl)=C1[C@@]3(C)O,chlortetracycline,9.3,Log unit,Oc1c2C(=O)C3=C(C4(C(=O)C(=C(C(C4CC3C(c2c(cc1)Cl)(O)C)N(C)C)O)C(=O)N)O)O,,,-
CC1(C)S[C@@H]2[C@H](NC(=O)C3(N)CCCCC3)C(=O)N2[C@H]1C(O)=O,CYCLACILLIN,2.68,Log unit,OC(=O)C1N2C(C(NC(=O)C3(N)CCCCC3)C2=O)SC1(C)C,,,-
CC1(C(=O)NC(=O)NC1=O)C1=CC=CC=C1,Barbituric acid,7.78,Log unit,N1C(=O)C(C(=O)NC1=O)(c1ccccc1)C,,,-
C1=CC2=C(N=C1)N=CC=N2,"1,4,5-triazanapthalene",1.2,Log unit,n1ccnc2c1cccn2,1,25,?C
[O-]C1=C2C=CC=CC2=NC=N1,4-Hydroxyquinazoline,9.87,Log unit,[O-]c1ncnc2ccccc12,2,25,?C
CN1CCC=C(C1)C(O)=O,Arecaidine,9.07,Log unit,N1(CC(=CCC1)C(=O)O)C,,,-
OC1=CC=CC2=NC3=CC=CC=C3N=C12,1-Hydroxyphenazine,1.61,Log unit,n1c2ccccc2nc2cccc(c12)O,n,25,?C
[S-]C1=NC=NC2=C1C=CC=C2,4-Mercaptoquinazoline,8.47,Log unit,[S-]c1ncnc2c1cccc2,2,25,?C
NC1=NC2=C(C=CC=C2)N=C1,2-AMINOQUINOXALINE,3.9,Log unit,n1c(N)cnc2ccccc12,4,25,?C
NC1=CC2=C(C=C1)N=CC=N2,6-AMINOQUINOXALINE,2.9,Log unit,n1ccnc2ccc(cc12)N,3,25,?C
COC1=C2C=CC=CC2=NC=N1,4-METHOXYQUINAZOLINE,3.07,Log unit,n1cnc(OC)c2c1cccc2,1,25,?C
NC1=CC=CC2=C1N=CC=N2,5-AMINOQUINOXALINE,2.6,Log unit,n1ccnc2c(N)cccc12,4,25,?C
CC(C)C1(C)C(=O)NC(=O)NC1=O,Barbituric acid,8.45,Log unit,N1C(=O)NC(=O)C(C1=O)(C(C)C)C,,,-
CNC(=N)NC(=N)NC1=CC=C(Cl)C=C1,N1-p-Chlorophenyl-N5-alkylbigu,10.95,Log unit,N=C(NC(=N)Nc1ccc(cc1)Cl)NC,,,-
CC(C)=CCC1(C)C(=O)NC(=O)NC1=O,Barbituric acid,8.39,Log unit,N1C(=O)C(C(=O)NC1=O)(CC=C(C)C)C,,,-
CC1=C2C=CC=C(O)C2=NC=N1,8-hydroxy-4-methylquinazoline,2.88,Log unit,n1cnc2c(cccc2c1C)O,2,25,?C
CC(C)=CCC1(C(=O)NC(=O)NC1=O)C(C)(C)C,Barbituric acid,8.39,Log unit,N1C(=O)C(C(=O)NC1=O)(CC=C(C)C)C(C)(C)C,,,-
C[C@H](N)CC1=CC=C(O)C=C1,"Amphetamine, 4-hydroxy",9.7,Log unit,NC(Cc1ccc(cc1)O)C,,,-
CC1(C)S[C@@H]2[C@H](N)C(=O)N2[C@H]1C(O)=O,6-Aminopenicillanic Acid,4.9,Log unit,NC1C(=O)N2C(C(O)=O)C(C)(C)SC21,,,-
COC(=O)[C@H](CC1=CC=CC=C1)NC(=O)[C@@H](N)CC(O)=O,ASPARTAME,7.87,Log unit,NC(C(=O)NC(C(=O)OC)Cc1ccccc1)CC(=O)O,,,-
BrC1(Br)C(=O)NC(=O)NC1=O,Barbituric acid,5.68,Log unit,N1C(=O)C(C(=O)NC1=O)(Br)Br,,,-
NC1=CC2=NC3=C(C=C(N)C=C3)N=C2C=C1,"2,7-Diaminophenazine",4.29,Log unit,Nc1cc2nc3ccc(N)cc3nc2cc1,n,25,?C
NC1=CC2=NC3=CC=CC=C3N=C2C=C1,2-Aminophenazine,4.71,Log unit,n1c2ccccc2nc2ccc(cc12)N,n,25,?C
NC12CC3CC(CC(C3)C1)C2,Amantadine,10.58,Log unit,NC12CC3CC(C1)CC(C2)C3,,,-
NC1=CC=CC2=CC3=CC=CC(N)=C3N=C12,"4,5-diaminoacridine",2.55,Log unit,Nc1cccc2c1nc1c(cccc1c2)N,n,25,?C
NC1=C2N=CN(C3O[C@H](CO)[C@H](O)[C@@H]3O)C2=NC=N1,Adenosine,12.35,Log unit,OC1C(n2c3c(c(N)ncn3)nc2)OC(CO)C1O,,,-
COC1=CC(C[C@H](C)N)=CC=C1,"Amphetamine, 3-methoxy",9.86,Log unit,NC(Cc1cccc(c1)OC)C,,,-
COC1=CC=C(C[C@H](C)N)C=C1,"Amphetamine, 4-methoxy",9.99,Log unit,NC(Cc1ccc(cc1)OC)C,,,-
CC1(C)SC2[C@H](NC(=O)C3(N)CCCC3)C(=O)N2[C@H]1C(O)=O,WY-7953,2.62,Log unit,OC(=O)C1N2C(=O)C(NC(=O)C3(CCCC3)N)C2SC1(C)C,,,-
ClC1(Cl)C(=O)NC(=O)NC1=O,Barbituric acid,5.55,Log unit,N1C(=O)C(C(=O)NC1=O)(Cl)Cl,,,-
CCC1(C(C)CC(C)C)C(=O)NC(=O)NC1=O,Barbituric acid,8.14,Log unit,N1C(=O)C(C(=O)NC1=O)(C(CC(C)C)C)CC,,,-
CC(C)=CCC1(CC=C(C)C)C(=O)NC(=O)NC1=O,Barbituric acid,8.13,Log unit,N1C(=O)C(C(=O)NC1=O)(CC=C(C)C)CC=C(C)C,,,-
CC(C)CC(=C)C1(C)C(=O)NC(=O)NC1=O,Barbituric acid,7.78,Log unit,N1C(=O)C(C(=O)NC1=O)(C(=C)CC(C)C)C,,,-
CCC1(C(=C)CC(C)C)C(=O)NC(=O)NC1=O,Barbituric acid,7.48,Log unit,N1C(=O)C(C(=O)NC1=O)(C(=C)CC(C)C)CC,,,-
CCC1(C(=O)NC(=O)NC1=O)C1=CC(=CC=C1)[N+]([O-])=O,Barbituric acid,7.015,Log unit,N1C(=O)C(C(=O)NC1=O)(c1cc([N+](=O)[O-])ccc1)CC,,,-
CCC1(C(=O)NC(=O)NC1=O)C1=CC=C(C=C1)[N+]([O-])=O,Barbituric acid,6.94,Log unit,N1C(=O)C(C(=O)NC1=O)(c1ccc([N+](=O)[O-])cc1)CC,,,-
COC1=CC2=C(C=C1OC)[C@@]13CCN4CC5=CCOC6CC(=O)N2C1[C@@H]6[C@@H]5C[C@H]34,brucine,8.28,Log unit,N12C3C4(C5N(C(=O)CC6C5C(C3)C(=CCO6)C1)c1c4cc(c(c1)OC)OC)CC2,,,-
C[C@H](CCC(O)=O)C1CC[C@H]2[C@@H]3[C@H](O)C[C@@H]4C[C@H](O)CC[C@]4(C)[C@H]3CC[C@]12C,chenodeoxycholic acid,5.03,Log unit,OC(=O)CCC(C1C2(C(C3C(C4(C(CC(O)CC4)CC3O)C)CC2)CC1)C)C,,,-
CC1(C)S[C@@H](N[C@H]1C(O)=O)[C@H](NC(=O)CC1=CC=CC=C1)C(O)=O,Benzylpenicilloic acid,5.32,Log unit,N1C(SC(C)(C)C1C(=O)O)C(NC(=O)Cc1ccccc1)C(=O)O,,,-
CC1(C)S[C@@H](N[C@H]1C(O)=O)[C@H](NC(=O)CCOC1=CC=CC=C1)C(O)=O,Phenoxyethylpenicilloic acid,5.29,Log unit,N1C(SC(C)(C)C1C(=O)O)C(NC(=O)CCOc1ccccc1)C(=O)O,,,-
CC1(C)S[C@@H](N[C@H]1C(O)=O)[C@H](NC(=O)CCCOC1=CC=CC=C1)C(O)=O,Phenoxypropylpenicilloic acid,5.3,Log unit,N1C(C(=O)O)C(C)(SC1C(NC(=O)CCCOc1ccccc1)C(=O)O)C,,,-
CSCC[C@H](NC(=O)[C@@H](CC1=CC=CC=C1)NC(=O)CNC(=O)CNC(=O)[C@H](N)CC1=CC=C(O)C=C1)C(O)=O,Enkephalin,9.89,Log unit,Oc1ccc(CC(C(=O)NCC(=O)NCC(=O)NC(C(=O)NC(C(=O)O)CCSC)Cc2ccccc2)N)cc1,,,-
NCCC1=C(I)NC=N1,"Histamine, monoiodo",11.88,Log unit,[nH]1c(c(CCN)nc1)I,,,-
NCCC1=C(I)NC(I)=N1,"Histamine, diiodo",10.11,Log unit,[nH]1c(c(CCN)nc1I)I,,,-
CCC[S@](=O)C1=CC=C2NC(NC(=O)OC)=NC2=C1,Albendazole sulphoxide,9.93,Log unit,[nH]1c(nc2cc(S(=O)CCC)ccc12)NC(=O)OC,,,-
CN(C)[C@H]1[C@@H]2[C@@H](O)[C@@H]3C(=C(O)[C@]2(O)C(=O)C(C(N)=O)=C1O)C(=O)C1=C(O)C=CC=C1[C@@]3(C)O,oxytetracycline,9.11,Log unit,Oc1cccc2c1C(=O)C1=C(C3(C(C(C1C2(O)C)O)C(C(=C(C3=O)C(=O)N)O)N(C)C)O)O,,,-
CN1CC[C@]23[C@H]4OC5=C(O)C=CC(C[C@@H]1[C@@H]2C=C[C@@H]4O[C@H]1O[C@@H]([C@H](O)[C@H](O)[C@H]1O)C(O)=O)=C35,Morphine-6-glucuronide,9.36,Log unit,N1(C2C3C=CC(OC4OC(C(O)C(O)C4O)C(=O)O)C4C3(c3c(c(O)ccc3C2)O4)CC1)C,,,-
CCSC1=CC2=C(C=C1)C=NC=N2,7-ethylthioquinazoline,3.11,Log unit,n1cnc2cc(SCC)ccc2c1,n,25,?C
COC1=C(C)C2=C(C=C1)C=NC=N2,7-methoxy-8-methylquinazoline,3.78,Log unit,n1cnc2c(c(ccc2c1)OC)C,n,25,?C
C1=CC2=C(C=NC=N2)N=C1,"1,3,5-triazanaphthalene",1.36,Log unit,n1c2c(ncnc2)ccc1,n,25,?C
C1=CC2=C(C=N1)N=CN=C2,"1,3,7-triazanaphthalene",1.81,Log unit,n1cnc2cnccc2c1,n,25,?C
C1=CC2=C(N=C1)N=CN=C2,"1,3,8-triazanaphthalene",1,Log unit,n1c2ncncc2ccc1,n,25,?C
CC1=NC2=C(C=CN=C2)N=C1,"3-methyl-1,4,6-triazanaphthalene",3.315,Log unit,n1ccc2ncc(nc2c1)C,n,25,?C
OC1=CC2=CN=CN=C2C=C1,6-hydroxyquinazoline,3.1,Log unit,n1cnc2ccc(cc2c1)O,3,25,?C
OC1=CC2=NC=NC=C2C=C1,7-hydroxyquinazoline,3.2,Log unit,n1cnc2cc(O)ccc2c1,3,25,?C
OC1=CC2=C(C=C1)N=CC=N2,6-hydroxyquinoxaline,1.4,Log unit,n1ccnc2ccc(cc12)O,2,25,?C
[S-]c1ncc2ccccc2[n+]1,2-mercaptoquinazoline,0.26,Log unit,n1c([S-])[n+]c2c(c1)cccc2,n,25,?C
[S-]C1=NC=C2C=CC=CC2=N1,2-mercaptoquinazoline,8.2,Log unit,[S-]c1ncc2ccccc2n1,1,25,?C
[S-]c1nc[n+]c2ccccc12,4-Mercaptoquinazoline,1.5,Log unit,[S-]c1nc[n+]c2c1cccc2,n,25,?C
COC1=NC2=C(C=CC=C2)C=N1,2-methoxyquinazoline,1.455,Log unit,n1cc2ccccc2nc1OC,1,25,?C
CN(C)C1=NC2=C(C=CC=C2)N=C1,2-dimethylaminoquinoxaline,3.69,Log unit,n1c(cnc2ccccc12)N(C)C,2,25,?C
COC1=NC2=C(C=CC=C2)N=C1C,2-methoxy-3-methylquinoxaline,1.38,Log unit,n1c(c(nc2ccccc12)OC)C,1,25,?C
CNC1=NC2=C(C=CC=C2)N=C1,2-methylaminoquinoxaline,4.07,Log unit,n1c(cnc2ccccc12)NC,3,25,?C
NC1=NC(N)=C2C=CC=NC2=N1,"2,4-diamino-1,3,8-triazanaphthalene",6.62,Log unit,n1c(nc2NCCCc2c1N)N,6,25,?C
CC1=C2C(N)=NC(N)=NC2=NC=C1CC1=CC=CC=C1,"2,4-diamino-6-benzyl-5-methyl-1,3,8-triazanaphthalene",6.98,Log unit,n1c(c2c(c(Cc3ccccc3)cnc2nc1N)C)N,6,25,?C
NC1=NC2=C(C=C1)N=CC=N2,"6-amino-1,4,5-triazanapthalene",4.25,Log unit,n1ccnc2c1ccc(N)n2,3,25,?C
C1=NC2=CC=NC=C2N=C1,"1,4,6-triazanapthalene",2.4,Log unit,n1ccc2nccnc2c1,3,25,?C
CC1=NC2=C(C=NC=C2)N=C1C,"2,3-dimethyl-1,4,6-triazanaphthalene",3.28,Log unit,n1cc2nc(c(C)nc2cc1)C,3,25,?C
OC(=O)c1ccc2[n+]c3ccccc3cc2c1,2-carboxyacridine,2.9,Log unit,OC(=O)c1cc2cc3ccccc3[n+]c2cc1,co2h,25,?C
C1=CC2=CN=CN=C2C=C1,Quinazoline,1.5,Log unit,n1cnc2ccccc2c1,2,25,?C
[O-]C1=NC2=C(C=CC=C2)C=C1,2-Hydroxyquinoline,11.76,Log unit,[O-]c1nc2ccccc2cc1,n,25,?C
[O-]C1=CC=NC2=C1C=CC=C2,4-Hydroxyquinoline,11.28,Log unit,[O-]c1ccnc2ccccc12,n,25,?C
NC1=NC(N)=NC(N)=N1,"2,4,6-Triamino-1,3,5-triazine",4.8,Log unit,n1c(nc(nc1N)N)N,n,25,?C
NC1=NC=CN=N1,"3-Amino-1,2,4-triazine",3.09,Log unit,n1c(nncc1)N,4,25,?C
NC1=NC(N)=C2C=CC=CC2=N1,"2,4-DIAMINOQUINAZOLINE",7.96,Log unit,n1c(nc(N)c2c1cccc2)N,5,25,?C
[S-]C1=NC2=C(C=CC=C2)C=C1,2-Mercaptoquinoline,10.25,Log unit,[S-]c1nc2ccccc2cc1,n,25,?C
NC1=NC(=NC(N)=N1)C1=CC=C(Cl)C=C1,"2,4-diamino-6-(p-chlorobenzyl)1,3,5-triazine",3.97,Log unit,n1c(c2ccc(Cl)cc2)nc(nc1N)N,5,25,?C
CCCOC1=NC(N)=NC(N)=N1,"2,4-diamino-6-propoxy-1,3,5-triazine",3.4,Log unit,n1c(nc(nc1OCCC)N)N,5,25,?C
NNC1=CC2=CC=CC=C2N=C1,3-hydrazinoquinoline,4.85,Log unit,NNc1cc2ccccc2nc1,n,25,?C
ClC1=NC=C2C=CC=CC2=N1,2-chloroquinazoline,-1.6,Log unit,n1c(Cl)nc2c(c1)cccc2,2,25,?C
NC1=NC(N)=NC=N1,"2,4-Diamino-1,3,5-triazine",3.9,Log unit,n1cnc(N)nc1N,6,25,?C
CC1=NC(N)=NC(N)=N1,"2,4-Diamino-6-methyl-1,3,5-triazine",4.3,Log unit,n1c(nc(nc1C)N)N,6,25,?C
COCNC1=NC(NCOC)=NC(NCOC)=N1,"2,4,6-tris(methoxy)methylamino-1,3,5-triazine",3.2,Log unit,n1c(nc(nc1NCOC)NCOC)NCOC,n,25,?C
NC1=NC=NC=N1,"2-Amino-1,3,5-triazine",2.9,Log unit,n1cnc(N)nc1,5,25,?C
OC1=CC=C(C([O-])=O)C2=C1N=CC=C2,5-carboxy-8-hydroxyquinoline,4.8,Log unit,[O-]C(=O)c1c2c(nccc2)c(cc1)O,n,25,?C
NC1=CC2=CN=CN=C2C=C1,6-aminoquinazoline,3.28,Log unit,Nc1cc2cncnc2cc1,4,25,?C
NC1=CC2=NC=NC=C2C=C1,7-aminoquinazoline,4.59,Log unit,n1cnc2cc(N)ccc2c1,4,25,?C
NC1=NC2=C(C=CC=C2)C=N1,2-aminoquinazoline,4.81,Log unit,n1cc2ccccc2nc1N,3,25,?C
CC1=NC(N)=NC2=CC=CC=C12,2-amino-4-methylquinazoline,5.31,Log unit,n1c(c2ccccc2nc1N)C,3,25,?C
NC1=NC(CC([O-])=O)=NC(N)=N1,"2,4-diamino-6-carboxymethyl-1,3,5-triazine",4.1,Log unit,n1c(N)nc(N)nc1CC(=O)[O-],5,25,?C
CC1=NC([O-])=NC(N)=N1,"2-amino-4-hydroxy-6-methyl-1,3,5-triazine",9.2,Log unit,[O-]c1nc(nc(n1)C)N,4,25,?C
[O-]C1=CC2=C(C=CC=C2)C=N1,3-hydroxyisoquinoline,9.62,Log unit,[O-]c1ncc2ccccc2c1,n,25,?C
[S-]C1=NC=CC2=C1C=CC=C2,1-mercaptoisoquinoline,10.86,Log unit,[S-]c1nccc2c1cccc2,n,25,?C
[S-]C1=NC=C2C=CC=CC2=C1,3-mercaptoisoquinoline,8.62,Log unit,[S-]c1ncc2ccccc2c1,n,25,?C
[S-]C1=CC=C(Br)C2=C1N=CC=C2,5-bromo-8-mercaptoquinoline,7.3,Log unit,[S-]c1ccc(Br)c2cccnc12,n,25,?C
[S-]C1=CC=C(Cl)C2=C1N=CC=C2,5-chloro-8-mercaptoquinoline,7.34,Log unit,[S-]c1ccc(Cl)c2cccnc12,n,25,?C
FC1=CC=C([S-])C2=C1C=CC=N2,5-fluoro-8-mercaptoquinoline,7.44,Log unit,[S-]c1ccc(F)c2c1nccc2,n,25,?C
NNC1=CC=CC2=C1C=CC=N2,5-hydrazinoquinoline,3.5,Log unit,NNc1c2c(nccc2)ccc1,4,25,?C
NNC1=CC2=C(C=C1)N=CC=C2,6-hydrazinoquinoline,5.5,Log unit,NNc1ccc2ncccc2c1,n,25,?C
NNC1=CC2=C(C=CC=N2)C=C1,7-hydrazinoquinoline,6.71,Log unit,NNc1cc2ncccc2cc1,n,25,?C
NNC1=CC=CC2=C1N=CC=C2,8-hydrazinoquinoline,5.27,Log unit,NNc1c2ncccc2ccc1,n,25,?C
[S-]C1=CC=C(I)C2=C1N=CC=C2,5-iodo-8-mercaptoquinoline,7.48,Log unit,[S-]c1ccc(I)c2cccnc12,n,25,?C
[S-]C1=CN=C2C=CC=CC2=C1,3-mercaptoquinoline,6.17,Log unit,[S-]c1cnc2ccccc2c1,n,25,?C
[S-]C1=CC=NC2=C1C=CC=C2,4-mercaptoquinoline,8.87,Log unit,[S-]c1ccnc2c1cccc2,n,25,?C
[S-]C1=CC=CC2=C1C=CC=N2,5-mercaptoquinoline,6.52,Log unit,[S-]c1cccc2c1cccn2,n,25,?C
[S-]C1=CC=C2N=CC=CC2=C1,6-mercaptoquinoline,6.5,Log unit,[S-]c1ccc2ncccc2c1,n,25,?C
[S-]C1=CC=CC2=C1N=CC=C2,8-Mercaptoquinoline,8.33,Log unit,[S-]c1cccc2c1nccc2,n,25,?C
CC1=CC2=C(N=CC=C2C)C([S-])=C1,"8-mercapto-4,6-dimethylquinoline",9.3,Log unit,[S-]c1cc(cc2c1nccc2C)C,n,25,?C
CC1=CC=NC2=C1C=CC=C2[S-],8-mercapto-4-methylquinoline,9.1,Log unit,[S-]c1cccc2c1nccc2C,n,25,?C
CC1=CC2=C(N=CC=C2)C([S-])=C1,8-mercapto-6-methylquinoline,8.49,Log unit,[S-]c1cc(cc2c1nccc2)C,n,25,?C
CC1=C([S-])C2=C(C=CC=N2)C=C1,8-mercapto-7-methylquinoline,9.27,Log unit,[S-]c1c(ccc2c1nccc2)C,n,25,?C
[S-]C1=CC=CC2=C1N=C(C=C2)C1=CC=CC=C1,8-mercapto-2-phenylquinoline,7.87,Log unit,[S-]c1cccc2c1nc(cc2)c1ccccc1,n,25,?C
[O-]S(=O)(=O)C1=CC=C([S-])C2=C1C=CC=N2,8-mercapto-5-sulphoquinoline,7.63,Log unit,[S-]c1ccc(S(=O)(=O)[O-])c2c1nccc2,n,25,?C
CC1=NC2=C(C=C1)C(=CC(=C2[O-])N(=O)=O)S([O-])(=O)=O,2-methyl-8-hydroxy-7-nitro-5-sulphoquinoline,6.24,Log unit,[O-]c1c(cc(S(=O)(=O)[O-])c2ccc(C)nc12)N(=O)=O,n,25,?C
NC1=CC=NC2=C1C=CC=C2O,4-amino-8-hydroxyquinoline,10.71,Log unit,n1ccc(N)c2c1c(ccc2)O,oh,25,?C
CC1=NC(C)=C(C)C(=N1)S([O-])(=O)=O,"2,4,5-trimethyl-6-sulphopyrimidine",2.33,Log unit,n1c(nc(S(=O)(=O)[O-])c(c1C)C)C,1,25,?C
CC1=NC(N)=NC(C)=N1,"2-amino-4,6-dimethyl-1,3,5-triazine",3.56,Log unit,n1c(nc(nc1C)N)C,3,25,?C
NC1=NN=C(CC2=CC=C(Cl)C=C2)C(N)=N1,"3,5-diamino-6-(p-chlorobenzyl)1,2,4-triazine",6.47,Log unit,n1nc(Cc2ccc(Cl)cc2)c(nc1N)N,6,25,?C
NC1=NN=C(C(N)=N1)C1=CC=C(Cl)C=C1,"3,5-diamino-6-(p-chlorophenyl)1,2,4-triazine",6.07,Log unit,n1nc(c2ccc(Cl)cc2)c(nc1N)N,6,25,?C
NC1=NC(=NC([O-])=N1)C1=CC=CC=C1,"2-amino-4-hydroxy-6-phenyl-1,3,5-triazine",8.1,Log unit,[O-]c1nc(c2ccccc2)nc(n1)N,5,25,?C
CC1=NC(C)=C(C)N=N1,"3,5,6-trimethyl-1,2,4-triazine",2.8,Log unit,n1nc(nc(c1C)C)C,3,25,?C
NC1=NC(CO)=NC(N)=N1,"2,4-diamino-6-hydroxymethyl-1,3,5-triazine",3.8,Log unit,n1c(nc(nc1CO)N)N,6,25,?C
Oc1cc2ccccc2c[n+]1,3-hydroxyisoquinoline,2.18,Log unit,Oc1[n+]cc2ccccc2c1,oh,25,?C
Sc1[n+]ccc2ccccc12,1-mercaptoisoquinoline,-1.9,Log unit,Sc1[n+]ccc2c1cccc2,sh,25,?C
Sc1cc2ccccc2c[n+]1,3-mercaptoisoquinoline,0.39,Log unit,Sc1[n+]cc2ccccc2c1,sh,25,?C
Sc1ccc(Br)c2ccc[n+]c12,5-bromo-8-mercaptoquinoline,1.43,Log unit,Sc1ccc(Br)c2ccc[n+]c12,sh,25,?C
Sc1cc(Br)cc2ccc[n+]c12,6-bromo-8-mercaptoquinoline,2.22,Log unit,Sc1cc(Br)cc2c1[n+]ccc2,sh,25,?C
OC(=O)c1ccc2ccccc2[n+]1,2-Carboxyquinoline,1,Log unit,OC(=O)c1[n+]c2ccccc2cc1,co2h,25,?C
OC(=O)c1cccc2ccc[n+]c12,8-Carboxyquinoline,1.82,Log unit,OC(=O)c1c2[n+]cccc2ccc1,co2h,25,?C
Fc1ccc(S)c2[n+]cccc12,5-fluoro-8-mercaptoquinoline,1.97,Log unit,Sc1ccc(F)c2c1[n+]ccc2,sh,25,?C
NNc1ccc2ccccc2[n+]1,2-Hydrazinoquinoline,2,Log unit,NNc1[n+]c2ccccc2cc1,4,25,?C
NNc1c[n+]c2ccccc2c1,3-hydrazinoquinoline,2.47,Log unit,NNc1cc2ccccc2[n+]c1,4,25,?C
NNc1cc[n+]c2ccccc12,4-hydrazinoquinoline,0.8,Log unit,NNc1c2ccccc2[n+]cc1,4,25,?C
NNc1ccc2[n+]cccc2c1,6-hydrazinoquinoline,3.53,Log unit,c1c[n+]c2ccc(NN)cc2c1,4,25,?C
NNc1ccc2ccc[n+]c2c1,7-hydrazinoquinoline,2.8,Log unit,NNc1cc2[n+]cccc2cc1,4,25,?C
NNc1cccc2ccc[n+]c12,8-hydrazinoquinoline,1.3,Log unit,NNc1c2[n+]cccc2ccc1,4,25,?C
Cc1cc(NN)[n+]c2ccccc12,2-hydrazino-4-methylquinoline,2.8,Log unit,NNc1[n+]c2ccccc2c(c1)C,4,25,?C
Oc1ccc2ccccc2[n+]1,2-Hydroxyquinoline,-0.31,Log unit,Oc1[n+]c2ccccc2cc1,oh,25,?C
Oc1cc[n+]c2ccccc12,4-Hydroxyquinoline,2.2,Log unit,Oc1cc[n+]c2ccccc12,oh,25,?C
Sc1ccc(I)c2ccc[n+]c12,5-iodo-8-mercaptoquinoline,1.34,Log unit,Sc1ccc(I)c2ccc[n+]c12,sh,25,?C
Sc1ccc2ccccc2[n+]1,2-Mercaptoquinoline,-1.44,Log unit,Sc1[n+]c2ccccc2cc1,sh,25,?C
Sc1c[n+]c2ccccc2c1,3-mercaptoquinoline,2.3,Log unit,Sc1c[n+]c2ccccc2c1,sh,25,?C
Sc1cc[n+]c2ccccc12,4-mercaptoquinoline,0.77,Log unit,Sc1cc[n+]c2c1cccc2,sh,25,?C
Sc1ccc2[n+]cccc2c1,6-mercaptoquinoline,3.91,Log unit,Sc1ccc2[n+]cccc2c1,sh,25,?C
Sc1cccc2ccc[n+]c12,8-Mercaptoquinoline,2.015,Log unit,Sc1cccc2c1[n+]ccc2,sh,25,?C
Cc1cc(S)c2[n+]ccc(C)c2c1,"8-mercapto-4,6-dimethylquinoline",2.3,Log unit,Sc1cc(cc2c1[n+]ccc2C)C,sh,25,?C
Cc1ccc2cccc(S)c2[n+]1,8-mercapto-2-methylquinoline,2.28,Log unit,Sc1cccc2c1[n+]c(cc2)C,sh,25,?C
Cc1cc[n+]c2c(S)cccc12,8-mercapto-4-methylquinoline,2.07,Log unit,Sc1cccc2c1[n+]ccc2C,sh,25,?C
Cc1cc(S)c2[n+]cccc2c1,8-mercapto-6-methylquinoline,2.11,Log unit,Sc1cc(cc2c1[n+]ccc2)C,sh,25,?C
Cc1ccc2ccc[n+]c2c1S,8-mercapto-7-methylquinoline,2.25,Log unit,Sc1c(ccc2c1[n+]ccc2)C,sh,25,?C
Sc1cccc2ccc([n+]c12)C1=CC=CC=C1,8-mercapto-2-phenylquinoline,1.28,Log unit,Sc1cccc2c1[n+]c(cc2)c1ccccc1,sh,25,?C
[O-]S(=O)(=O)c1ccc(S)c2[n+]cccc12,8-mercapto-5-sulphoquinoline,0.92,Log unit,[O-]S(=O)(=O)c1ccc(S)c2[n+]cccc12,sh,25,?C
Cc1ccc2c(cc(c(O)c2[n+]1)N(=O)=O)S([O-])(=O)=O,2-methyl-8-hydroxy-7-nitro-5-sulphoquinoline,0.7,Log unit,Oc1c(cc(S(=O)(=O)[O-])c2ccc(C)[n+]c12)N(=O)=O,oh,25,?C
C1=CC2=CN=CC=C2N=C1,"1,6-naphthyridine",3.76,Log unit,n1ccc2ncccc2c1,2,25,?C
O=N(=O)C1=CC2=CN=CC=C2N=C1,"3-nitro-1,6-naphthyridine",2.32,Log unit,n1ccc2ncc(cc2c1)N(=O)=O,2,25,?C
C1=CC2=CC=NC=C2N=C1,"1,7-naphthyridine",3.61,Log unit,n1ccc2cccnc2c1,2,25,?C
NC1=CC=CC2=NC=NC=C12,5-aminoquinazoline,3.56,Log unit,n1cnc2cccc(c2c1)N,4,25,?C
NC1=CC=CC2=CN=CN=C12,8-aminoquinazoline,2.8,Log unit,n1cnc2c(cccc2c1)N,4,25,?C
COC1=CC=CC2=C1C=NC(N)=N2,2-amino-5-methoxyquinazoline,4.83,Log unit,n1c(nc2cccc(c2c1)OC)N,4,25,?C
COC1=CC2=C(C=C1)N=C(N)N=C2,2-amino-6-methoxyquinazoline,4.72,Log unit,n1c(nc2ccc(OC)cc2c1)N,4,25,?C
COC1=CC2=C(C=C1)C=NC(N)=N2,2-amino-7-methoxyquinazoline,5.01,Log unit,n1c(nc2cc(ccc2c1)OC)N,4,25,?C
COC1=CC=CC2=C1N=C(N)N=C2,2-amino-8-methoxyquinazoline,4.58,Log unit,n1c(nc2c(cccc2c1)OC)N,4,25,?C
CC1=NC(=NC2=CC=CC=C12)C(C)(C)C,2-t-butyl-4-methylquinazoline,3.82,Log unit,n1c(c2ccccc2nc1C(C)(C)C)C,1,25,?C
CC1=NC(Cl)=NC2=C1C=CC=C2,2-chloro-4-methylquinazoline,-0.75,Log unit,n1c(Cl)nc2ccccc2c1C,2,25,?C
N#CC1=NC2=C(C=CC=C2)C=N1,2-cyanoquinazoline,-2.56,Log unit,n1cc2ccccc2nc1C#N,2,25,?C
NC1=NC2=C(C(N)=N1)C(Cl)=CC=C2Cl,"2,4-diamino-5,8-dichloroquinazoline",6.07,Log unit,n1c2c(Cl)ccc(Cl)c2c(nc1N)N,6,25,?C
CCC1=CC=CC2=C(N)N=C(N)N=C12,"2,4-diamino-8-ehtylquinazoline",8.29,Log unit,n1c(nc(N)c2c1c(ccc2)CC)N,5,25,?C
CC1=C2C=CC=CC2=NC(=N1)C(Cl)Cl,2-dichloromethyl-4-methylquinazoline,0.11,Log unit,n1c(C(Cl)Cl)nc2c(c1C)cccc2,1,25,?C
COC1=NC2=CC=CC=C2N=C1C,2-methoxy-3-methylquinoxaline,1.38,Log unit,n1c2ccccc2nc(OC)c1C,1,25,?C
[O-]C1=NC=NC=C1,4-Hydroxypyrimidine,8.63,Log unit,[O-]c1ncncc1,1,25,?C
COC1=CC(CC2=C(N)N=C(N)N=C2)=CC(OC)=C1OC,"2,4-diamino-5-(3',4',5'-trimethoxybenzyl)pyrimidine",7.12,Log unit,n1c(nc(N)c(c1)Cc1cc(OC)c(OC)c(c1)OC)N,5,25,?C
[O-]C1=NC=CC=N1,2-Hydroxypyrimidine,9.2,Log unit,[O-]c1ncccn1,n,25,?C
CC1=NC=NC=C1,4-METHYLPYRIMIDINE,1.905,Log unit,n1cnc(C)cc1,1,25,?C
CC1=CC([O-])=NC=N1,4-Hydroxy-6-methylpyrimidine,9.1,Log unit,[O-]c1ncnc(c1)C,2,25,?C
CCOC1=NC=CC=N1,2-ethoxypyrimidine,1.27,Log unit,n1cccnc1OCC,2,25,?C
COC1=CC(OC)=NC=N1,"4,6-Dimethoxypyrimidine",1.2,Log unit,n1cnc(OC)cc1OC,2,25,?C
COC1=NC=NC=C1,4-methoxypyrimidine,2.5,Log unit,n1cnc(OC)cc1,2,25,?C
CSC1=NC(C)=CC(C)=N1,"4,6-dimethyl-2-methylthiopyrimidine",2.12,Log unit,n1c(SC)nc(cc1C)C,1,25,?C
CC1=NC([O-])=NC=C1,2-hydroxy-4-methylpyrimidine,9.9,Log unit,[O-]c1nccc(n1)C,n,25,?C
CC1=CC(C)=NC([S-])=N1,"2-Mercapto-4,6-dimethylpyrimidine",8.2,Log unit,[S-]c1nc(cc(n1)C)C,n,25,?C
COC(=O)C1=NC=CC=N1,2-methoxycarbonylpyrimidine,-0.68,Log unit,n1cccnc1C(=O)OC,2,25,?C
CCC1=C(N)N=C(N)N=C1N,"2,4,6-triamino-5-ethylpyrimidine",6.84,Log unit,n1c(nc(N)c(c1N)CC)N,7,25,?C
CC1=CC(C)=NC([O-])=N1,"2-Hydroxy-4,6-dimethylpyrimidine",10,Log unit,[O-]c1nc(cc(n1)C)C,n,25,?C
[S-]C1=NC=CC=N1,2-Mercaptopyrimidine,6.9,Log unit,[S-]c1ncccn1,n,25,?C
CC1=CC([O-])=NC(C)=N1,"4-Hydroxy-2,6-dimethylpyrimidine",9.82,Log unit,[O-]c1nc(nc(c1)C)C,2,25,?C
CSC1=NC=CC(C)=N1,4-methyl-2-methylthiopyrimidine,1.86,Log unit,n1c(SC)nc(cc1)C,1,25,?C
NC1=NC=C(C(N)=N1)C1=CC=CC=C1,"2,4-diamino-5-phenylpyrimidine",6.9,Log unit,n1cc(c2ccccc2)c(nc1N)N,6,25,?C
CC1=NC(N)=NC(N)=C1C1=CC=CC=C1,"2,4-diamino-6-methyl-5-phenylpyrimidine",7.4,Log unit,n1c(c(c2ccccc2)c(nc1N)N)C,5,25,?C
CC1=NC([S-])=NC=C1,2-mercapto-4-methylpyrimidine,8.1,Log unit,[S-]c1nccc(n1)C,2,25,?C