Smiles,Name,pKa,pKa Unit,Ionizable center smiles,IC group,Temperature,Temperature Unit
OC(=O)C1=C(C=CC=C1)C1=CC=CC=C1,2-BIPHENYLCARBOXYLICACID,3.46,Log unit,OC(=O)c1ccccc1c1ccccc1,,,-
OC(=O)[C@@H](Br)C1=CC=CC=C1,2-BROMO-2-PHENYLACETICACID,2.21,Log unit,OC(=O)C(c1ccccc1)Br,,,-
OC(=O)C1=C(Br)C=CC=C1N(=O)=O,2-BROMO-6-NITROBENZOICACID,1.37,Log unit,OC(=O)c1c(cccc1Br)N(=O)=O,,,-
OC(=O)C1=C(Br)C=CC=C1,2-BROMOBENZOICACID,2.85,Log unit,OC(=O)c1ccccc1Br,,,-
OC(=O)\C=C\C1=C(Br)C=CC=C1,2-BROMOCINNAMICACID,4.41,Log unit,OC(=O)C=Cc1ccccc1Br,,,-
OC1=C(Br)C=CC=C1,2-Bromophenol,8.45,Log unit,Oc1ccccc1Br,,,-
C[C@@H](Br)C(O)=O,2-BROMOPROPANOICACID,2.97,Log unit,OC(=O)C(C)Br,,,-
C\C=C\C(O)=O,2-BUTENOICACID,4.44,Log unit,OC(=O)C=CC,,,-
OC(=O)C#CC(O)=O,"2-BUTYN-1,4-DIOICACID",1.75,Log unit,OC(=O)C#CC(=O)O,,,-
CC#CC(O)=O,2-BUTYNOICACID,2.62,Log unit,OC(=O)C#CC,,,-
CC(C)(Cl)C(O)=O,2-CHLORO-2-METHYLPROPANOICACID,2.97,Log unit,OC(=O)C(C)(Cl)C,,,-
OC(=O)[C@H](Cl)C=C,2-CHLORO-3-BUTENOICACID,2.54,Log unit,OC(=O)C(C=C)Cl,,,-
C[C@H](O)[C@H](Cl)C(O)=O,2-CHLORO-3-HYDROXYBUTANOICACID,2.59,Log unit,OC(=O)C(C(C)O)Cl,,,-
OC(=O)C1=CC=CC(=C1Cl)N(=O)=O,2-CHLORO-3-NITROBENZOICACID,2.02,Log unit,OC(=O)c1c(c(ccc1)N(=O)=O)Cl,,,-
OC(=O)C1=CC=C(C=C1Cl)N(=O)=O,2-CHLORO-4-NITROBENZOICACID,1.96,Log unit,OC(=O)c1c(cc(cc1)N(=O)=O)Cl,,,-
OC(=O)C1=CC(=CC=C1Cl)N(=O)=O,2-CHLORO-5-NITROBENZOICACID,2.17,Log unit,OC(=O)c1c(ccc(c1)N(=O)=O)Cl,,,-
OC(=O)C1=C(C=CC=C1Cl)N(=O)=O,2-CHLORO-6-NITROBENZOICACID,1.34,Log unit,OC(=O)c1c(cccc1N(=O)=O)Cl,,,-
OC(=O)C1=CC=CC=C1Cl,2-CHLOROBENZOICACID,2.88,Log unit,OC(=O)c1c(cccc1)Cl,,,-
CC[C@@H](Cl)C(O)=O,2-CHLOROBUTANOICACID,2.86,Log unit,OC(=O)C(CC)Cl,,,-
OC(=O)\C=C\C1=C(Cl)C=CC=C1,2-CHLOROCINNAMICACID,4.23,Log unit,OC(=O)C=Cc1ccccc1Cl,,,-
C\C=C(/Cl)C(O)=O,2-CHLOROCROTONICACID,3.14,Log unit,OC(=O)C(=CC)Cl,,,-
OC1=CC=CC=C1Cl,2-chlorophenol,8.55,Log unit,Oc1c(cccc1)Cl,,,-
OC(=O)COC1=C(Cl)C=CC=C1,2-CHLOROPHENOXYACETICACID,3.05,Log unit,OC(=O)COc1c(cccc1)Cl,,,-
OC(=O)CC1=CC=CC=C1Cl,2-CHLOROPHENYLACETICACID,4.07,Log unit,OC(=O)Cc1ccccc1Cl,,,-
C[C@H](Cl)C(O)=O,2-CHLOROPROPANOICACID,2.84,Log unit,OC(=O)C(C)Cl,,,-
C[C@@](C#N)(C(O)=O)C1=CC=CC=C1,2-CYANO-2-METHYL-2-PHENYLACETICACID,2.29,Log unit,OC(=O)C(c1ccccc1)(C)C#N,,,-
CC(C)(C#N)C(O)=O,2-CYANO-2-METHYLPROPANOICACID,2.42,Log unit,OC(=O)C(C)(C)C#N,,,-
OC(=O)C1=C(C=CC=C1)C#N,2-CYANOBENZOICACID,3.14,Log unit,OC(=O)c1c(C#N)cccc1,,,-
C[C@@H](C#N)C(O)=O,2-CYANOPROPANOICACID,2.37,Log unit,OC(=O)C(C)C#N,,,-
CCOCCS,2-Ethoxyethanethiol,9.38,Log unit,SCCOCC,,,-
CCOC1=C(O)C=CC=C1,2-Ethoxyphenol,10.11,Log unit,Oc1c(cccc1)OCC,,,-
CCC1=CC=CC=C1C(O)=O,2-ETHYLBENZOICACID,3.79,Log unit,OC(=O)c1c(cccc1)CC,,,-
CCC1=C(O)C=CC=C1,2-Ethylphenol,10.2,Log unit,Oc1c(cccc1)CC,,,-
OC(=O)C(F)=C,2-FLUOROACRYLICACID,2.55,Log unit,OC(=O)C(=C)F,,,-
OC(=O)C1=CC=CC=C1F,2-FLUOROBENZOICACID,3.27,Log unit,OC(=O)c1c(cccc1)F,,,-
OC1=CC=CC=C1F,2-Fluorophenol,8.73,Log unit,Oc1c(cccc1)F,,,-
OC(=O)COC1=CC=CC=C1F,2-FLUOROPHENOXYACETICACID,3.08,Log unit,OC(=O)COc1c(cccc1)F,,,-
OC(=O)C1=CC=CO1,2-FURANCARBOXYLICACID,3.16,Log unit,OC(=O)c1occc1,,,-
CCC\C=C\C(O)=O,2-HEXENOICACID,4.74,Log unit,OC(=O)C=CCCC,,,-
C[C@@](O)(C(O)=O)C1=CC=CC=C1,2-HYDROXY-2-PHENYLPROPANOICACID,3.53,Log unit,OC(=O)C(c1ccccc1)(C)O,,,-
COC1=CC=CC(C=O)=C1O,2-Hydroxy-3-methoxybenzaldehyde,7.91,Log unit,Oc1c(cccc1C=O)OC,,,-
CC1=C(O)C(=CC=C1)C(O)=O,2-HYDROXY-3-METHYLBENZOICACID,2.99,Log unit,OC(=O)c1c(c(ccc1)C)O,,,-
OC(=O)C1=CC=CC(=C1O)N(=O)=O,2-HYDROXY-3-NITROBENZOICACID,2.23,Log unit,OC(=O)c1c(c(ccc1)N(=O)=O)O,,,-
CC1=CC=C(C(O)=O)C(O)=C1,2-HYDROXY-4-METHYLBENZOICACID,3.17,Log unit,OC(=O)c1c(cc(cc1)C)O,,,-
OC(=O)C1=CC=C(C=C1O)N(=O)=O,2-HYDROXY-4-NITROBENZOICACID,1.87,Log unit,OC(=O)c1c(cc(cc1)N(=O)=O)O,,,-
OC(=O)C1=CC(Br)=CC=C1O,2-HYDROXY-5-BROMOBENZOICACID,2.61,Log unit,OC(=O)c1c(ccc(c1)Br)O,,,-
OC(=O)C1=CC(Cl)=CC=C1O,2-HYDROXY-5-CHLOROBENZOICACID,2.63,Log unit,OC(=O)c1c(ccc(c1)Cl)O,,,-
OC(=O)C1=CC(=CC=C1O)N(=O)=O,2-HYDROXY-5-NITROBENZOICACID,2.12,Log unit,OC(=O)c1c(ccc(c1)N(=O)=O)O,,,-
OC1=C(C=O)C=CC=C1,2-hydroxybenzaldehyde,8.34,Log unit,Oc1c(cccc1)C=O,,,-
NC(=O)C1=C(O)C=CC=C1,2-hydroxybenzamide,8.36,Log unit,Oc1c(cccc1)C(=O)N,,,-
OC(=O)C1=CC=CC=C1O,2-HYDROXYBENZOICACID,2.98,Log unit,OC(=O)c1c(cccc1)O,,,-
OC[C@@H](C(O)=O)C1=CC=CC=C1,2-HYDROXYMETHYL-2-BENZENEACETICACID,4.12,Log unit,OC(=O)C(c1ccccc1)CO,,,-
C[C@@H](O)C(O)=O,2-HYDROXYPROPANOICACID,3.86,Log unit,OC(=O)C(C)O,,,-
CC1=C(O)C=CC=C1,2-hydroxytoluene,10.33,Log unit,Oc1c(cccc1)C,,,-
OC(=O)C1=C(I)C=CC=C1,2-IODOBENZOICACID,2.86,Log unit,OC(=O)c1ccccc1I,,,-
OC1=C(I)C=CC=C1,2-IODOPHENOL,8.46,Log unit,Oc1c(cccc1)I,,,-
OC(=O)COC1=CC=CC=C1I,2-IODOPHENOXYACETICACID,3.17,Log unit,OC(=O)COc1ccccc1I,,,-
OC(=O)CC1=CC=CC=C1I,2-IODOPHENYLACETICACID,4.04,Log unit,OC(=O)Cc1ccccc1I,,,-
OC(=O)CC1(CC(O)=O)CCCC1,"1,1-CYCLOPENTYLDIACETICACID",3.8,Log unit,OC(=O)CC1(CCCC1)CC(=O)O,,,-
CCCCCCCCCC(N(=O)=O)N(=O)=O,"1,1-DINITRODECANE",3.6,Log unit,C(CCCCCCCCC)(N(=O)=O)N(=O)=O,,,-
CCCCC(N(=O)=O)N(=O)=O,"1,1-DINITROPENTANE",5.34,Log unit,C(CCCC)(N(=O)=O)N(=O)=O,,,-
OC(=O)C1=C(C(O)=O)C(C(O)=O)=C(C=C1)C(O)=O,"1,2,3,4-BENZENETETRACARBOXYLICACID",2.05,Log unit,OC(=O)c1c(c(ccc1C(=O)O)C(=O)O)C(=O)O,,,-
OC(=O)C[C@@H]([C@H](CC(O)=O)C(O)=O)C(O)=O,"1,2,3,4-BUTANETETRACARBOXYLICACID",3.43,Log unit,OC(=O)C(CC(=O)O)C(CC(=O)O)C(=O)O,,,-
OC(=O)C1=CC(C(O)=O)=C(C(O)=O)C(=C1)C(O)=O,"1,2,3,5-BENZENETETRACARBOXYLICACID",2.38,Log unit,OC(=O)c1c(cc(cc1C(=O)O)C(=O)O)C(=O)O,,,-
OC(=O)C1=CC=CC(C(O)=O)=C1C(O)=O,"1,2,3-BENZENETRICARBOXYLICACID",2.88,Log unit,OC(=O)c1c(cccc1C(=O)O)C(=O)O,,,-
OC(=O)C1=CNN=N1,"1,2,3-TRIAZOLE-4-CARBOXYLICACID",3.22,Log unit,OC(=O)c1nn[nH]c1,,,-
OC1=CC=CC(O)=C1O,"1,2,3-trihydroxybenzene",9.03,Log unit,Oc1c(O)cccc1O,,,-
OC(=O)C1=CC(C(O)=O)=C(C=C1C(O)=O)C(O)=O,"1,2,4,5-BENZENETETRACARBOXYLICACID",1.92,Log unit,OC(=O)c1cc(c(cc1C(=O)O)C(=O)O)C(=O)O,,,-
OC(=O)C1=CC(C(O)=O)=C(C=C1)C(O)=O,"1,2,4-BENZENETRICARBOXYLICACID",2.52,Log unit,OC(=O)c1c(cc(cc1)C(=O)O)C(=O)O,,,-
O=C1NNC(=O)N1,"1,2,4-Triazolidine-3,5-dione",5.8,Log unit,[nH]1[nH]c(=O)[nH]c1=O,,,-
OC1=C(O)C(=CC=C1)N(=O)=O,"1,2-DIHYDROXY-3-NITROBENZENE",6.68,Log unit,Oc1c(cccc1N(=O)=O)O,,,-
SCCS,"1,2-ETHANEDITHIOL",8.96,Log unit,SCCS,,,-
OC(=O)C1=CC(=CC(=C1)C(O)=O)C(O)=O,"1,3,5-BENZENETRICARBOXYLICACID",2.12,Log unit,OC(=O)c1cc(cc(c1)C(=O)O)C(=O)O,,,-
OC1=CC(O)=CC(O)=C1,"1,3,5-trihydroxybenzene",8.45,Log unit,Oc1cc(O)cc(O)c1,,,-
OC(=O)C1=CC(=CC=C1)C(O)=O,"1,3-BENZENEDICARBOXYLICACID",3.62,Log unit,OC(=O)c1cc(ccc1)C(=O)O,,,-
O=C1CCCC(=O)C1,"1,3-Cyclohexanedione",5.26,Log unit,C1C(=O)CCCC1=O,,,-
OC1=CC(O)=CC=C1,"1,3-Dihydroxybenzene",9.44,Log unit,Oc1cccc(c1)O,,,-
OC(=O)C1=CC=C(C=C1)C(O)=O,"1,4-BENZENEDICARBOXYLICACID",3.54,Log unit,OC(=O)c1ccc(cc1)C(=O)O,,,-
OC1=CC(=C(O)C(=C1)N(=O)=O)N(=O)=O,"1,4-DIHYDROXY-2,6-DINITROBENZENE",4.42,Log unit,Oc1c(cc(cc1N(=O)=O)O)N(=O)=O,,,-
OC1=CC=C(O)C=C1,"1,4-Dihydroxybenzene",9.91,Log unit,Oc1ccc(cc1)O,,,-
O[C@H](CS)[C@H](O)CS,"1,4-dimercapto-2,3-butanediol",8.9,Log unit,SCC(O)C(CS)O,,,-
OC(=O)CCCCC(O)=O,"1,6-HEXANEDIOICACID",4.42,Log unit,OC(=O)CCCCC(=O)O,,,-
CC(C)(C)C1=C(O)C=CC=C1,1-(T-BUTYL)-2-HYDROXYBENZENE,10.62,Log unit,Oc1ccccc1C(C)(C)C,,,-
CC(C)(C)C1=CC=CC(O)=C1,1-(T-BUTYL)-3-HYDROXYBENZENE,10.12,Log unit,Oc1cccc(c1)C(C)(C)C,,,-
CC(C)(C)C1=CC=C(O)C=C1,1-(T-BUTYL)-4-HYDROXYBENZENE,10.23,Log unit,Oc1ccc(cc1)C(C)(C)C,,,-
NC1(CCCCCC1)C(O)=O,1-AMINO-1-CYCLOHEPTANECARBOXYLICACID1,2.59,Log unit,OC(=O)C1(CCCCCC1)N,,,-
NC1(CCCCC1)C(O)=O,1-AMINO-1-CYCLOHEXANECARBOXYLICACID1,2.65,Log unit,OC(=O)C1(CCCCC1)N,,,-
NC1=C(C=CC2=C1C=CC=C2)S(O)(=O)=O,1-AMINO-2-NAPHTHALENESULFONICACID,1.71,Log unit,Nc1c(ccc2ccccc12)S(=O)(=O)O,,,-
NC1=CC(=CC2=C1C=CC=C2)S(O)(=O)=O,1-AMINO-3-NAPHTHALENESULFONICACID,3.2,Log unit,Nc1cc(cc2ccccc12)S(=O)(=O)O,,,-
NC1=CC=CC2=C1C=CC=C2S(O)(=O)=O,1-AMINO-5-NAPHTHALENESULFONICACID,3.69,Log unit,Nc1cccc2c(cccc12)S(=O)(=O)O,,,-
NC1=CC=CC2=C1C=CC(=C2)S(O)(=O)=O,1-AMINO-6-NAPHTHALENESULFONICACID,3.8,Log unit,Nc1cccc2cc(ccc12)S(=O)(=O)O,,,-
NC1=CC=CC2=C1C=C(C=C2)S(O)(=O)=O,1-AMINO-7-NAPHTHALENESULFONICACID,3.66,Log unit,Nc1cccc2ccc(cc12)S(=O)(=O)O,,,-
NC1=CC=CC2=C1C(=CC=C2)S(O)(=O)=O,1-AMINO-8-NAPHTHALENESULFONICACID,5.03,Log unit,Nc1cccc2cccc(c12)S(=O)(=O)O,,,-
C[C@@H](N)S(O)(=O)=O,1-AMINOETHANESULFONICACID1,-0.33,Log unit,OS(=O)(=O)C(C)N,,,-
CC1=CC(O)=CC(C)=C1Cl,"1-CHLORO-2,6-DIMETHYL-4-HYDROXYBENZENE",9.55,Log unit,Oc1cc(c(c(c1)C)Cl)C,,,-
OC(=O)[C@H]1CCCC[C@@H]1C#N,1-CYANOCYCLOHEXANE-2-CARBOXYLICACID,3.87,Log unit,OC(=O)C1C(CCCC1)C#N,,,-
OCC1=CC=C(O)C(CO)=C1,"1-HYDROXY-2,4-DIHYDROXYMETHYLBENZENE",9.79,Log unit,Oc1c(cc(cc1)CO)CO,,,-
CCCC1=C(O)C=CC=C1,1-HYDROXY-2-PROPYLBENZENE,10.5,Log unit,Oc1c(cccc1)CCC,,,-
OCC1=CC=C(O)C=C1,1-HYDROXY-4-DIHYDROXYMETHYLBENZENE,9.84,Log unit,Oc1ccc(cc1)CO,,,-
OCC1=C(O)C=CC=C1,1-HYDROXYMETHYLPHENOL,9.95,Log unit,Oc1ccccc1CO,,,-
CC1(CCCCC1)C(O)=O,1-METHYLCYCLOHEXANE-1-CARBOXYLICACID,5.13,Log unit,OC(=O)C1(CCCCC1)C,,,-
OC(=O)C1=CC=CC2=C1C=CC=C2,1-NAPHTHALENECARBOXYLICACID,3.69,Log unit,OC(=O)c1cccc2ccccc12,,,-
OC(=O)CC1=CC=CC2=C1C=CC=C2,1-NAPHTHYLACETICACID,4.24,Log unit,OC(=O)Cc1cccc2ccccc12,,,-
CCCN(=O)=O,1-nitropropane,8.98,Log unit,C(CC)N(=O)=O,,,-
CCCCC(O)=O,1-PENTANOICACID,4.84,Log unit,OC(=O)CCCC,,,-
OC(=O)C1=CN(N=N1)C1=CC=CC=C1,"1-PHENYL-1,2,3-TRIAZOLE-4-CARBOXYLICACID",2.88,Log unit,OC(=O)c1nnn(c2ccccc2)c1,,,-
CCCS,1-Propanethiol,10.86,Log unit,SCCC,,,-
NCCCCCCCCCCS(O)(=O)=O,10-AMINODECYLSULFONICACID,2.65,Log unit,OS(=O)(=O)CCCCCCCCCCN,,,-
CC(=O)C1=C(O)C=CC=C1,2'-Hydroxyacetophenone,9.9,Log unit,Oc1c(cccc1)C(=O)C,,,-
COC1=C(OCC(O)=O)C=CC=C1,2'-METHOXYPHENOXYACETICACID,3.23,Log unit,OC(=O)COc1ccccc1OC,,,-
OC1=C(Cl)C=CC=C1CC1=CC=CC(Cl)=C1O,"2,2'-Methylenebis(4,6-dichlorophenol)",5.6,Log unit,Oc1c(cccc1Cc1cccc(Cl)c1O)Cl,,,-
OC1=CC=C(Cl)C=C1CC1=CC(Cl)=CC=C1O,"2,2'-Methylenebis(4-chlorophenol)",7.6,Log unit,Oc1ccc(cc1Cc1cc(Cl)ccc1O)Cl,,,-
OCC(N(=O)=O)(N(=O)=O)N(=O)=O,"2,2,2-TRINITROETHANOL",2.36,Log unit,OCC(N(=O)=O)(N(=O)=O)N(=O)=O,,,-
OCC(CO)(CO)C(O)=O,"2,2-DI(HYDROXYMETHYL)-3-HYDROXYPROPANOICACID",4.46,Log unit,OC(=O)C(CO)(CO)CO,,,-
CC(Br)(Br)C(O)=O,"2,2-DIBROMOPROPANOICACID",1.48,Log unit,OC(=O)C(Br)(Br)C,,,-
CC(Cl)(Cl)C(O)=O,"2,2-DICHLOROPROPANOICACID",2.06,Log unit,OC(=O)C(Cl)(Cl)C,,,-
CC1(C)OC(=O)CC(=O)O1,"2,2-Dimethyl-1,3-dioxane-4,6-dione",5.1,Log unit,C1C(=O)OC(OC1=O)(C)C,,,-
CC(C)(C(O)=O)C(O)=O,"2,2-DIMETHYLMALONICACID",3.17,Log unit,OC(=O)C(C(=O)O)(C)C,,,-
CCCC(C)(C)C(O)=O,"2,2-DIMETHYLPENTANOICACID",4.97,Log unit,OC(=O)C(CCC)(C)C,,,-
CC(C)(C)C(O)=O,"2,2-DIMETHYLPROPANOICACID",5.03,Log unit,OC(=O)C(C)(C)C,,,-
CCCC(CCC)(CCC(O)=O)C(O)=O,"2,2-DIPROPYLGLUTARICACID",3.69,Log unit,OC(=O)C(CCC(=O)O)(CCC)CCC,,,-
CC1=CC=C(O)C(C)=C1C,"2,3,4-Trimethylphenol",10.59,Log unit,Oc1ccc(C)c(C)c1C,,,-
CC1=CC(C)=C(C)C(C(O)=O)=C1C,"2,3,5,6-TETRAMETHYLBENZOICACID",3.41,Log unit,OC(=O)c1c(c(cc(c1C)C)C)C,,,-
OC(=O)[C@@H](Br)CBr,"2,3-DIBROMOPROPANOICACID",2.33,Log unit,OC(=O)C(Br)CBr,,,-
OC1=C(Cl)C(Cl)=CC=C1,"2,3-Dichlorophenol",7.44,Log unit,Oc1c(c(ccc1)Cl)Cl,,,-
OC(=O)[C@@H](Cl)CCl,"2,3-DICHLOROPROPANOICACID",2.85,Log unit,OC(=O)C(Cl)CCl,,,-
CC1=C(C)C(=CC=C1)C(O)=O,"2,3-DIMETHYLBENZOICACID",3.77,Log unit,OC(=O)c1c(c(ccc1)C)C,,,-
CC1=CC2=C(C=CC=C2)C(C(O)=O)=C1C,"2,3-DIMETHYLNAPHTHALENE-1-CARBOXYLICACID",3.33,Log unit,OC(=O)c1c(c(cc2ccccc12)C)C,,,-
CC1=CC=CC(O)=C1C,"2,3-DIMETHYLPHENOL",10.5,Log unit,Oc1c(c(ccc1)C)C,,,-
OC(=O)C1=CC=CC(=C1N(=O)=O)N(=O)=O,"2,3-DINITROBENZOICACID",1.85,Log unit,OC(=O)c1c(c(ccc1)N(=O)=O)N(=O)=O,,,-
OC1=C(Cl)C=C(Cl)C(Cl)=C1,"2,4,5-trichlorophenol",7.37,Log unit,Oc1c(Cl)cc(Cl)c(Cl)c1,,,-
CC1=CC(C)=C(C)C=C1O,"2,4,5-TRIMETHYLPHENOL",10.57,Log unit,Oc1cc(C)c(C)cc1C,,,-
OCC1=CC(CO)=C(O)C(CO)=C1,"2,4,6-TRI(HYDROXYMETHYL)PHENOL",9.56,Log unit,Oc1c(CO)cc(CO)cc1CO,,,-
OC(=O)C1=C(Br)C=C(Br)C=C1Br,"2,4,6-TRIBROMOBENZOICACID",1.41,Log unit,OC(=O)c1c(cc(cc1Br)Br)Br,,,-
OC(=O)C1=C(O)C=C(O)C=C1O,"2,4,6-TRIHYDROXYBENZOICACID",1.68,Log unit,OC(=O)c1c(O)cc(O)cc1O,,,-
CC1=CC(C)=C(C(O)=O)C(C)=C1,"2,4,6-TRIMETHYLBENZOICACID",3.45,Log unit,OC(=O)c1c(cc(cc1C)C)C,,,-
CC1=CC(C)=C(O)C(C)=C1,"2,4,6-Trimethylphenol",10.88,Log unit,Oc1c(C)cc(C)cc1C,,,-
OC(=O)C1=C(C=C(C=C1N(=O)=O)N(=O)=O)N(=O)=O,"2,4,6-TRINITROBENZOICACID",0.65,Log unit,OC(=O)c1c(cc(cc1N(=O)=O)N(=O)=O)N(=O)=O,,,-
OC1=C(Cl)C=C(Cl)C=C1,"2,4-dichlorophenol",7.85,Log unit,Oc1c(cc(cc1)Cl)Cl,,,-
C[C@@H](OC1=CC=C(Cl)C=C1Cl)C(O)=O,"2,4-DICHLOROPHENOXY-2-METHYLACETICACID",3.13,Log unit,OC(=O)C(Oc1c(cc(cc1)Cl)Cl)C,,,-
OC(=O)COC1=CC=C(Cl)C=C1Cl,"2,4-DICHLOROPHENOXYACETICACID",2.64,Log unit,OC(=O)COc1c(cc(cc1)Cl)Cl,,,-
OC(=O)C1=C(O)C=C(O)C=C1,"2,4-DIHYDROXYBENZOICACID",3.29,Log unit,OC(=O)c1ccc(cc1O)O,,,-
CC1=NC2=C(C=CC=C2O)C(C)=C1,"2,4-DIMETHYL-8-HYDROXYQUINOLINE",10.6,Log unit,Oc1cccc2c(cc(nc12)C)C,,,-
CC1=CC=C(C(O)=O)C(C)=C1,"2,4-DIMETHYLBENZOICACID",4.22,Log unit,OC(=O)c1c(cc(cc1)C)C,,,-
CC1=CC(C)=C(O)C=C1,"2,4-Dimethylphenol",10.58,Log unit,Oc1c(cc(cc1)C)C,,,-
OC(=O)C1=CC=C(C=C1N(=O)=O)N(=O)=O,"2,4-DINITROBENZOICACID",1.43,Log unit,OC(=O)c1c(cc(cc1)N(=O)=O)N(=O)=O,,,-
OC1=C(C=C(C=C1)N(=O)=O)N(=O)=O,"2,4-dinitrophenol",4.08,Log unit,Oc1c(cc(cc1)N(=O)=O)N(=O)=O,,,-
OC(=O)CC1=C(C=C(C=C1)N(=O)=O)N(=O)=O,"2,4-DINITROPHENYLACETICACID",3.5,Log unit,OC(=O)Cc1c(cc(cc1)N(=O)=O)N(=O)=O,,,-
C\C=C\C=C\C(O)=O,"2,4-HEXADIENOICACID",4.77,Log unit,OC(=O)C=CC=CC,,,-
ClC1C(=O)C(=O)C(Cl)C(=O)C1=O,"2,5-CICHLORO-3,6-DIHYDROXY-P-BENZOQUINONE",1.09,Log unit,C1(C(=O)C(=O)C(C(=O)C1=O)Cl)Cl,,,-
O=C1CC(=O)C(=O)CC1=O,"2,5-Dihydroxy-p-benzoquinone",2.71,Log unit,C1C(=O)C(=O)CC(=O)C1=O,,,-
OC(=O)C1=C(O)C=CC(O)=C1,"2,5-DIHYDROXYBENZOICACID",2.97,Log unit,OC(=O)c1cc(ccc1O)O,,,-
CC1=CC=C(C)C(=C1)C(O)=O,"2,5-DIMETHYLBENZOICACID",3.99,Log unit,OC(=O)c1c(ccc(c1)C)C,,,-
CC1=CC(O)=C(C)C=C1,"2,5-Dimethylphenol",10.22,Log unit,Oc1c(ccc(c1)C)C,,,-
OC(=O)C1=CC(=CC=C1N(=O)=O)N(=O)=O,"2,5-DINITROBENZOICACID",1.62,Log unit,OC(=O)c1c(ccc(c1)N(=O)=O)N(=O)=O,,,-
OC1=C(C=CC(=C1)N(=O)=O)N(=O)=O,"2,5-Dinitrophenol",5.22,Log unit,Oc1c(ccc(c1)N(=O)=O)N(=O)=O,,,-
OC1=C(Cl)C=CC=C1Cl,"2,6-Dichlorophenol",6.78,Log unit,Oc1c(cccc1Cl)Cl,,,-
OC(=O)C1=C(O)C=CC=C1O,"2,6-DIHYDROXYBENZOICACID",1.3,Log unit,OC(=O)c1c(cccc1O)O,,,-
CC1=C(O)C=C(C=C1)[N+]([O-])=O,2-Methyl-5-nitro-phenol,8.59,Log unit,Oc1cc([N+](=O)[O-])ccc1C,"phenol (ortho subs., pot. int. H-bond)",25,?C
CC1=C(O)C=CC(Cl)=C1,2-Methyl-4-chlorophenol,8.74,Log unit,Oc1c(cc(Cl)cc1)C,"phenol (ortho subs., pot. int. H-bond)",20,?C
OC1=C(Br)C=C(\C=N/OC2=C(C=C(C=C2)[N+]([O-])=O)[N+]([O-])=O)C=C1Br,BROMOFENOXIM,5.46,Log unit,Oc1c(cc(C=NOc2c([N+](=O)[O-])cc(cc2)[N+](=O)[O-])cc1Br)Br,"phenol (ortho subs., pot. int. H-bond)",,-
NC(=O)C1=C(O)C=CC=C1,2-hydroxybenzamide,8.89,Log unit,Oc1c(C(=O)N)cccc1,"phenol (ortho subs., pot. int. H-bond)",20,?C
OC1=C(C=CC=C1)C(=O)NC1=CC=CC=C1,salicylanilide,7.4,Log unit,Oc1c(C(=O)Nc2ccccc2)cccc1,"phenol (ortho subs., pot. int. H-bond)",25,?C
COC(=O)C1=C(O)C=CC=C1,methyl salicylate,9.87,Log unit,Oc1c(C(=O)OC)cccc1,"phenol (ortho subs., pot. int. H-bond)",20,?C
COC1=C(O)C(C=O)=CC=C1,o-Vanillin,7.912,Log unit,Oc1c(OC)cccc1C=O,"phenol (ortho subs., pot. int. H-bond)",25,?C
OC1=C(Cl)C=C(Cl)C=C1C(=O)NC1=CC=C(Cl)C=C1,"3,5,4'-TRICHLORO SALICYLANILIDE",4.7,Log unit,Oc1c(Cl)cc(cc1C(=O)Nc1ccc(cc1)Cl)Cl,"phenol (ortho subs., pot. int. H-bond)",25,?C
OC1=C(C=CC=C1)C(=O)NC1=C(Cl)C=CC=C1,2'-CHLORO SALICYLANILIDE,7.31,Log unit,Oc1c(C(=O)Nc2c(Cl)cccc2)cccc1,"phenol (ortho subs., pot. int. H-bond)",25,?C
OC1=C(C=C(C=C1)[N+]([O-])=O)C(=O)NC1=CC=CC=C1,5-NITRO SALICYLANILIDE,3.03,Log unit,Oc1c(cc([N+](=O)[O-])cc1)C(=O)Nc1ccccc1,"phenol (ortho subs., pot. int. H-bond)",25,?C
OC1=C(C=CC=C1)C(=O)NC1=CC=C(Br)C=C1,4'-BROMO SALICYLANILIDE,7.31,Log unit,Oc1c(C(=O)Nc2ccc(Br)cc2)cccc1,"phenol (ortho subs., pot. int. H-bond)",25,?C
OC1=C(C=C(Br)C=C1)C(=O)NC1=CC=C(Cl)C=C1,4'-CHLORO-5-BROMO SALICYLANILIDE,6,Log unit,Oc1c(cc(Br)cc1)C(=O)Nc1ccc(cc1)Cl,"phenol (ortho subs., pot. int. H-bond)",25,?C
OC1=C(C=CC=C1)C(=O)NC1=CC=C(Cl)C=C1,4'-CHLORO SALICYLANILIDE,7.3,Log unit,Oc1c(C(=O)Nc2ccc(Cl)cc2)cccc1,"phenol (ortho subs., pot. int. H-bond)",25,?C
OC1=C(Cl)C=C(Cl)C=C1C(=O)NC1=CC=CC=C1,"3,5-DICHLORO SALICYLANILIDE",4.7,Log unit,Oc1c(Cl)cc(cc1C(=O)Nc1ccccc1)Cl,"phenol (ortho subs., pot. int. H-bond)",25,?C
OC1=C(C=C(Cl)C=C1)C(=O)NC1=CC=CC=C1,5-CHLOROSALICYLANILIDE,6.17,Log unit,Oc1c(cc(Cl)cc1)C(=O)Nc1ccccc1,"phenol (ortho subs., pot. int. H-bond)",25,?C
CC1=C(NC(=O)C2=C(O)C=CC(Cl)=C2)C=CC=C1,5-CHLORO-2'-METHYL SALICYLANILIDE,6.6,Log unit,Oc1c(cc(Cl)cc1)C(=O)Nc1c(cccc1)C,"phenol (ortho subs., pot. int. H-bond)",25,?C
OC1=C(C=CC=C1)C(=O)NC1=C(Cl)C=C(Cl)C=C1,"2',4'-DICHLORO SALICYLANILIDE",7.14,Log unit,Oc1c(C(=O)Nc2c(Cl)cc(cc2)Cl)cccc1,"phenol (ortho subs., pot. int. H-bond)",25,?C
OC1=C(C=CC=C1)C(=O)NC1=C(C=CC=C1)[N+]([O-])=O,2'-NITRO SALICYLANILIDE,6.91,Log unit,Oc1c(C(=O)Nc2c([N+](=O)[O-])cccc2)cccc1,"phenol (ortho subs., pot. int. H-bond)",25,?C
OC1=C(C=CC=C1)C(=O)NC1=C(C=C(Cl)C=C1)[N+]([O-])=O,2'-NITRO-4'-CHLORO SALICYLANILIDE,6.74,Log unit,Oc1c(C(=O)Nc2c([N+](=O)[O-])cc(cc2)Cl)cccc1,"phenol (ortho subs., pot. int. H-bond)",25,?C
CNC(=O)C1=CC(Br)=CC(C)=C1O,"5-BROMO-2-HYDROXY-N,3-DIMETHYL-BENZAMIDE",7.52,Log unit,Oc1c(cc(Br)cc1C(=O)NC)C,"phenol (ortho subs., pot. int. H-bond)",,-
OC1=C(C=C(Cl)C=C1Cl)C(=O)NC1=CC=C(F)C=C1,"3,5-DICHLORO-4'-FLUORO SALICYLANILIDE",4.8,Log unit,Oc1c(C(=O)Nc2ccc(F)cc2)cc(cc1Cl)Cl,"phenol (ortho subs., pot. int. H-bond)",25,?C
OC1=C(C=C(Br)C=C1Br)C(=O)NC1=C(C=C(Cl)C=C1)[N+]([O-])=O,"3,5-DIBROMO-2'-NITRO-4'-CHLORO SALICYLANILIDE",4.11,Log unit,Oc1c(C(=O)Nc2c([N+](=O)[O-])cc(cc2)Cl)cc(cc1Br)Br,"phenol (ortho subs., pot. int. H-bond)",25,?C
CC1=C(NC(=O)C2=C(O)C=CC=C2)C=CC(Cl)=C1,2'-METHYL-4'-CHLORO SALICYLANILIDE,7.43,Log unit,Oc1c(C(=O)Nc2c(cc(Cl)cc2)C)cccc1,"phenol (ortho subs., pot. int. H-bond)",25,?C
CC1=C(NC(=O)C2=C(O)C=CC(F)=C2)C=CC(Br)=C1,5-FLUORO-2'-METHYL-4'-BROMO SALICYANILIDE,7.1,Log unit,Oc1c(C(=O)Nc2c(cc(Br)cc2)C)cc(cc1)F,"phenol (ortho subs., pot. int. H-bond)",25,?C
CC1=C(NC(=O)C2=C(O)C=CC(F)=C2)C=CC(Cl)=C1,5-FLUORO-2'-METHYL-4'-CHLORO SALICYANILIDE,7.3,Log unit,Oc1c(cc(F)cc1)C(=O)Nc1c(cc(cc1)Cl)C,"phenol (ortho subs., pot. int. H-bond)",25,?C
OC1=C(Br)C=C(Br)C=C1C(=O)NC1=C(F)C=C(F)C=C1,"3,5-DIBROMO-2',4'-DIFLUORO SALICYLANILIDE",4.77,Log unit,Oc1c(Br)cc(cc1C(=O)Nc1c(cc(cc1)F)F)Br,"phenol (ortho subs., pot. int. H-bond)",25,?C
OC1=C(C=C(Cl)C=C1Cl)C(=O)NC1=C(F)C=C(F)C=C1,"3,5-DICHLORO-2',4'-DIFLUORO SALICYLANILIDE",4.77,Log unit,Oc1c(C(=O)Nc2c(F)cc(cc2)F)cc(cc1Cl)Cl,"phenol (ortho subs., pot. int. H-bond)",25,?C
OC1=C(C=C(Cl)C=C1Cl)C(=O)NC1=C(C=C(Cl)C=C1)[N+]([O-])=O,"3,5,-4'-TRICHLORO-4'-NITRO SALICYLANILIDE",4.11,Log unit,Oc1c(C(=O)Nc2c([N+](=O)[O-])cc(cc2)Cl)cc(cc1Cl)Cl,"phenol (ortho subs., pot. int. H-bond)",25,?C
CC1=C(NC(=O)C2=C(O)C(Cl)=CC(Cl)=C2)C=CC(=C1)[N+]([O-])=O,"3,5-DICHLORO-2'-METHYL-4'-NITRO SALICYLANILIDE",4.41,Log unit,Oc1c(C(=O)Nc2c(cc([N+](=O)[O-])cc2)C)cc(cc1Cl)Cl,"phenol (ortho subs., pot. int. H-bond)",25,?C
OC1=CC=C2CCCC2=C1,5-INDANOL,10.32,Log unit,Oc1cc2c(cc1)CCC2,phenol,25,?C
CC[C@@H](CBr)C(O)=O,(2-BROMOMETHYL)BUTANOICACID,3.92,Log unit,OC(=O)C(CC)CBr,,,-
CC1=CC(CO)=C(O)C=C1,(2-HYDROXY-5-METHYLBENZENE)METHANOL,10.15,Log unit,Oc1ccc(cc1CO)C,,,-
CC1=C(OCC(O)=O)C=CC=C1,(2-METHYLPHENOXY)ACETICACID,3.23,Log unit,OC(=O)COc1c(cccc1)C,,,-
OC(=O)COC1=C(C=CC=C1)N(=O)=O,(2-NITROPHENOXY)ACETICACID,2.9,Log unit,OC(=O)COc1c(cccc1)N(=O)=O,,,-
COC1=CC=C(CC(O)=O)C=C1OC,"(3,4-DIMETHOXY)PHENYLACETICACID",4.33,Log unit,OC(=O)Cc1cc(c(cc1)OC)OC,,,-
CC1=CC=CC(OCC(O)=O)=C1,(3-METHYLPHENOXY)ACETICACID,3.2,Log unit,OC(=O)COc1cc(ccc1)C,,,-
OC(=O)COC1=CC(=CC=C1)N(=O)=O,(3-NITROPHENOXY)ACETICACID,2.95,Log unit,OC(=O)COc1cc(ccc1)N(=O)=O,,,-
OC(=O)COC1=CC(=C(Cl)C=C1)N(=O)=O,(4-CHLORO-3-NITROPHENOXY)ACETICACID,2.96,Log unit,OC(=O)COc1cc(c(Cl)cc1)N(=O)=O,,,-
CC1=CC=C(OCC(O)=O)C=C1,(4-METHYLPHENOXY)ACETICACID,3.21,Log unit,OC(=O)COc1ccc(cc1)C,,,-
CC1=CC=C(CC(O)=O)C=C1,(4-methylphenyl)aceticacid,4.37,Log unit,OC(=O)Cc1ccc(cc1)C,,,-
OC(=O)COC1=CC=C(C=C1)N(=O)=O,(4-NITROPHENOXY)ACETICACID,2.89,Log unit,OC(=O)COc1ccc(cc1)N(=O)=O,,,-